# vtk DataFile Version 2.0
sampleSurface
ASCII
DATASET POLYDATA
POINTS 24 double
0 -0.16 0.009
0 -0.16 -0.009
-0.16 0 0.009
-0.16 0 -0.009
0.16 0 0.009
0.16 0 -0.009
0 0.16 0.009
0 0.16 -0.009
-0.1 -0.16 -0.009
-0.16 -0.1 -0.009
-0.16 -0.1 0.009
-0.1 -0.16 0.009
0.1 -0.16 0.009
0.1 -0.16 -0.009
0.16 -0.1 0.009
0.16 -0.1 -0.009
-0.16 0.1 0.009
-0.16 0.1 -0.009
0.16 0.1 0.009
0.16 0.1 -0.009
-0.1 0.16 -0.009
-0.1 0.16 0.009
0.1 0.16 0.009
0.1 0.16 -0.009

POLYGONS 12 60
4 8 9 10 11
4 0 1 8 11
4 12 13 1 0
4 14 15 13 12
4 2 10 9 3
4 4 5 15 14
4 16 2 3 17
4 18 19 5 4
4 20 21 16 17
4 6 21 20 7
4 22 6 7 23
4 18 22 23 19
CELL_DATA 12
FIELD attributes 1
gamma 1 12 double
1 1 1 1 1 1 1 1 1 1
1 1
