/*--------------------------------*- C++ -*----------------------------------*\
| =========                 |                                                 |
| \\      /  F ield         | OpenFOAM: The Open Source CFD Toolbox           |
|  \\    /   O peration     | Version:  2206                                  |
|   \\  /    A nd           | Website:  www.openfoam.com                      |
|    \\/     M anipulation  |                                                 |
\*---------------------------------------------------------------------------*/
FoamFile
{
    version     2.0;
    format      ascii;
    arch        "LSB;label=32;scalar=64";
    class       volScalarField;
    location    "0.2";
    object      k;
}
// * * * * * * * * * * * * * * * * * * * * * * * * * * * * * * * * * * * * * //

dimensions      [0 2 -2 0 0 0 0];

internalField   nonuniform List<scalar> 
1875
(
8.56033e-05
5.37088e-05
3.95887e-05
3.37412e-05
3.17245e-05
3.13599e-05
3.14556e-05
3.15685e-05
3.1612e-05
3.16032e-05
3.1569e-05
3.1526e-05
3.14817e-05
3.1438e-05
3.13941e-05
3.1348e-05
3.12973e-05
3.12388e-05
3.11691e-05
3.10847e-05
3.09816e-05
3.08558e-05
3.07036e-05
3.05233e-05
3.03166e-05
3.00913e-05
2.98638e-05
2.96592e-05
2.95057e-05
2.94251e-05
2.94273e-05
2.95096e-05
2.96589e-05
2.98532e-05
3.00684e-05
3.02854e-05
3.04892e-05
3.06709e-05
3.08271e-05
3.09575e-05
3.1064e-05
3.11492e-05
3.12163e-05
3.12682e-05
3.13079e-05
3.1338e-05
3.13605e-05
3.13771e-05
3.13894e-05
3.13983e-05
3.14048e-05
3.14095e-05
3.14128e-05
3.14152e-05
3.14169e-05
3.14181e-05
3.14189e-05
3.14195e-05
3.14199e-05
3.14202e-05
3.14203e-05
3.14205e-05
3.14205e-05
3.14206e-05
3.14206e-05
3.14206e-05
3.14206e-05
3.14206e-05
3.14206e-05
3.14206e-05
3.14206e-05
3.14206e-05
3.14205e-05
3.14196e-05
3.14157e-05
8.52031e-05
5.41597e-05
3.92103e-05
3.18072e-05
2.84812e-05
2.72943e-05
2.70909e-05
2.72441e-05
2.74542e-05
2.7615e-05
2.77107e-05
2.77562e-05
2.77702e-05
2.77668e-05
2.77542e-05
2.77365e-05
2.7715e-05
2.76896e-05
2.76593e-05
2.76221e-05
2.75753e-05
2.7514e-05
2.74302e-05
2.73127e-05
2.71488e-05
2.69309e-05
2.6665e-05
2.6378e-05
2.61158e-05
2.59283e-05
2.58499e-05
2.58923e-05
2.60421e-05
2.62627e-05
2.65119e-05
2.67553e-05
2.69709e-05
2.71499e-05
2.72922e-05
2.74026e-05
2.74873e-05
2.75519e-05
2.76014e-05
2.76394e-05
2.76684e-05
2.76907e-05
2.77078e-05
2.77209e-05
2.7731e-05
2.77387e-05
2.77445e-05
2.77489e-05
2.77523e-05
2.77548e-05
2.77567e-05
2.77582e-05
2.77593e-05
2.77601e-05
2.77607e-05
2.77612e-05
2.77615e-05
2.77618e-05
2.7762e-05
2.77621e-05
2.77622e-05
2.77623e-05
2.77623e-05
2.77624e-05
2.77624e-05
2.77624e-05
2.77625e-05
2.77624e-05
2.7762e-05
2.77585e-05
2.77354e-05
8.51045e-05
5.40158e-05
3.90745e-05
3.1341e-05
2.74316e-05
2.56676e-05
2.50589e-05
2.50033e-05
2.51534e-05
2.53328e-05
2.54757e-05
2.55706e-05
2.56265e-05
2.56562e-05
2.56703e-05
2.56758e-05
2.56768e-05
2.56755e-05
2.56722e-05
2.5666e-05
2.56526e-05
2.56214e-05
2.55503e-05
2.54026e-05
2.51318e-05
2.47013e-05
2.41108e-05
2.3418e-05
2.2736e-05
2.22033e-05
2.19358e-05
2.19838e-05
2.23248e-05
2.28566e-05
2.34614e-05
2.40419e-05
2.45355e-05
2.49174e-05
2.51908e-05
2.53744e-05
2.54915e-05
2.55633e-05
2.56061e-05
2.56314e-05
2.56465e-05
2.56558e-05
2.56617e-05
2.56656e-05
2.56683e-05
2.56704e-05
2.56719e-05
2.5673e-05
2.5674e-05
2.56747e-05
2.56752e-05
2.56756e-05
2.56759e-05
2.56762e-05
2.56764e-05
2.56765e-05
2.56766e-05
2.56767e-05
2.56768e-05
2.56768e-05
2.56769e-05
2.56769e-05
2.56769e-05
2.56769e-05
2.56769e-05
2.5677e-05
2.5677e-05
2.56769e-05
2.56764e-05
2.56728e-05
2.56513e-05
8.50585e-05
5.37649e-05
3.88051e-05
3.10738e-05
2.71103e-05
2.52514e-05
2.4542e-05
2.4404e-05
2.45009e-05
2.46578e-05
2.47987e-05
2.49016e-05
2.49685e-05
2.50086e-05
2.50316e-05
2.50444e-05
2.50518e-05
2.50564e-05
2.50581e-05
2.50529e-05
2.50262e-05
2.49429e-05
2.47336e-05
2.42907e-05
2.34953e-05
2.22774e-05
2.068e-05
1.88789e-05
1.71507e-05
1.58027e-05
1.50983e-05
1.51976e-05
1.60497e-05
1.73965e-05
1.89602e-05
2.05083e-05
2.18685e-05
2.29524e-05
2.37458e-05
2.42841e-05
2.46253e-05
2.48282e-05
2.49419e-05
2.50019e-05
2.50315e-05
2.50451e-05
2.50505e-05
2.50521e-05
2.50521e-05
2.50515e-05
2.50508e-05
2.50502e-05
2.50496e-05
2.50493e-05
2.5049e-05
2.50488e-05
2.50486e-05
2.50485e-05
2.50484e-05
2.50484e-05
2.50483e-05
2.50483e-05
2.50483e-05
2.50483e-05
2.50483e-05
2.50482e-05
2.50482e-05
2.50482e-05
2.50482e-05
2.50482e-05
2.50482e-05
2.50482e-05
2.50477e-05
2.50441e-05
2.50223e-05
8.50398e-05
5.36179e-05
3.8582e-05
3.0861e-05
2.6936e-05
2.51066e-05
2.44098e-05
2.42731e-05
2.43673e-05
2.45209e-05
2.466e-05
2.47626e-05
2.48298e-05
2.48707e-05
2.48944e-05
2.49077e-05
2.4915e-05
2.49179e-05
2.49125e-05
2.48816e-05
2.47757e-05
2.44855e-05
2.38229e-05
2.25538e-05
2.0507e-05
1.77148e-05
1.44686e-05
1.1212e-05
8.401e-06
6.37089e-06
5.3291e-06
5.44227e-06
6.67956e-06
8.77373e-06
1.14219e-05
1.43157e-05
1.70967e-05
1.94998e-05
2.13879e-05
2.275e-05
2.36595e-05
2.42264e-05
2.45584e-05
2.47421e-05
2.48383e-05
2.48858e-05
2.49076e-05
2.49166e-05
2.49195e-05
2.49199e-05
2.49192e-05
2.49183e-05
2.49174e-05
2.49166e-05
2.49161e-05
2.49156e-05
2.49153e-05
2.4915e-05
2.49148e-05
2.49147e-05
2.49146e-05
2.49145e-05
2.49145e-05
2.49144e-05
2.49144e-05
2.49144e-05
2.49144e-05
2.49144e-05
2.49143e-05
2.49143e-05
2.49143e-05
2.49143e-05
2.49137e-05
2.49102e-05
2.48879e-05
8.5032e-05
5.35444e-05
3.84475e-05
3.07177e-05
2.68215e-05
2.50304e-05
2.43644e-05
2.4245e-05
2.43457e-05
2.45004e-05
2.46385e-05
2.47401e-05
2.48068e-05
2.48474e-05
2.48709e-05
2.48839e-05
2.489e-05
2.48869e-05
2.48577e-05
2.47458e-05
2.441e-05
2.35846e-05
2.19199e-05
1.91626e-05
1.53945e-05
1.11219e-05
7.08175e-06
3.87504e-06
1.78157e-06
7.3232e-07
3.41583e-07
3.3078e-07
7.12211e-07
1.76684e-06
3.75811e-06
6.76308e-06
1.03708e-05
1.40496e-05
1.73412e-05
1.99722e-05
2.18795e-05
2.315e-05
2.39369e-05
2.43947e-05
2.46468e-05
2.47786e-05
2.48442e-05
2.48751e-05
2.48885e-05
2.48936e-05
2.48951e-05
2.4895e-05
2.48943e-05
2.48936e-05
2.4893e-05
2.48925e-05
2.48921e-05
2.48918e-05
2.48915e-05
2.48913e-05
2.48912e-05
2.48911e-05
2.4891e-05
2.4891e-05
2.4891e-05
2.48909e-05
2.48909e-05
2.48909e-05
2.48909e-05
2.48909e-05
2.48909e-05
2.48908e-05
2.48903e-05
2.48867e-05
2.48643e-05
8.50284e-05
5.3508e-05
3.83738e-05
3.06323e-05
2.67498e-05
2.49832e-05
2.43399e-05
2.42354e-05
2.4343e-05
2.44998e-05
2.46377e-05
2.47384e-05
2.48043e-05
2.48445e-05
2.48678e-05
2.48801e-05
2.48825e-05
2.48624e-05
2.47677e-05
2.44497e-05
2.35956e-05
2.17624e-05
1.86325e-05
1.43561e-05
9.6179e-06
5.33297e-06
2.22413e-06
6.17769e-07
1.43581e-07
2.20147e-08
5.82923e-09
5.91821e-09
2.06868e-08
9.62515e-08
4.37202e-07
1.72668e-06
4.30628e-06
7.97897e-06
1.20723e-05
1.59032e-05
1.90301e-05
2.13109e-05
2.28275e-05
2.37618e-05
2.43017e-05
2.45973e-05
2.47515e-05
2.48282e-05
2.48646e-05
2.48809e-05
2.48875e-05
2.48898e-05
2.48902e-05
2.48899e-05
2.48894e-05
2.48889e-05
2.48885e-05
2.48882e-05
2.48879e-05
2.48877e-05
2.48876e-05
2.48875e-05
2.48874e-05
2.48873e-05
2.48873e-05
2.48873e-05
2.48872e-05
2.48872e-05
2.48872e-05
2.48872e-05
2.48872e-05
2.48871e-05
2.48866e-05
2.4883e-05
2.48606e-05
8.50266e-05
5.34896e-05
3.83331e-05
3.05819e-05
2.67053e-05
2.4953e-05
2.4324e-05
2.42294e-05
2.43423e-05
2.45008e-05
2.46388e-05
2.4739e-05
2.48045e-05
2.48444e-05
2.48673e-05
2.48779e-05
2.48706e-05
2.48086e-05
2.4566e-05
2.38334e-05
2.21072e-05
1.89703e-05
1.45413e-05
9.57153e-06
5.07899e-06
1.90798e-06
4.4151e-07
2.71713e-07
0.00015
0.00015
0.00015
0.00015
0.00015
0.00015
2.05918e-08
2.15812e-07
1.19911e-06
3.53213e-06
7.15602e-06
1.13869e-05
1.54342e-05
1.87552e-05
2.11687e-05
2.27608e-05
2.37322e-05
2.42885e-05
2.45906e-05
2.47471e-05
2.48248e-05
2.48617e-05
2.48784e-05
2.48854e-05
2.4888e-05
2.48887e-05
2.48886e-05
2.48883e-05
2.4888e-05
2.48877e-05
2.48874e-05
2.48872e-05
2.48871e-05
2.4887e-05
2.48869e-05
2.48868e-05
2.48868e-05
2.48867e-05
2.48867e-05
2.48867e-05
2.48867e-05
2.48867e-05
2.48867e-05
2.48866e-05
2.48861e-05
2.48825e-05
2.48601e-05
8.50256e-05
5.34795e-05
3.83095e-05
3.05511e-05
2.6677e-05
2.49328e-05
2.43127e-05
2.42247e-05
2.4341e-05
2.45008e-05
2.46391e-05
2.47391e-05
2.48044e-05
2.48441e-05
2.48664e-05
2.48727e-05
2.48449e-05
2.47004e-05
2.41926e-05
2.28199e-05
2.00229e-05
1.57332e-05
1.06444e-05
5.85189e-06
2.29773e-06
5.90486e-07
4.51956e-06
0.00015
0.00015
0.00015
0.00015
0.00015
0.00015
0.00015
0.00015
1.16249e-08
2.20468e-07
1.24729e-06
3.71478e-06
7.48566e-06
1.181e-05
1.58625e-05
1.91169e-05
2.14346e-05
2.2936e-05
2.38378e-05
2.43473e-05
2.46208e-05
2.47613e-05
2.48306e-05
2.48634e-05
2.48782e-05
2.48846e-05
2.4887e-05
2.48878e-05
2.48879e-05
2.48877e-05
2.48875e-05
2.48873e-05
2.48871e-05
2.4887e-05
2.48869e-05
2.48868e-05
2.48867e-05
2.48867e-05
2.48867e-05
2.48866e-05
2.48866e-05
2.48866e-05
2.48866e-05
2.48866e-05
2.48865e-05
2.4886e-05
2.48824e-05
2.486e-05
8.5025e-05
5.34735e-05
3.82952e-05
3.05317e-05
2.66582e-05
2.49188e-05
2.43042e-05
2.42204e-05
2.43392e-05
2.45e-05
2.46385e-05
2.47384e-05
2.48037e-05
2.48433e-05
2.48641e-05
2.48628e-05
2.48002e-05
2.45261e-05
2.36472e-05
2.15239e-05
1.77553e-05
1.27503e-05
7.61544e-06
3.49564e-06
9.62649e-07
2.43138e-07
0.00015
0.00015
0.00015
0.00015
0.00015
0.00015
0.00015
0.00015
0.00015
0.00015
2.69798e-08
3.02736e-07
1.636e-06
4.54156e-06
8.63645e-06
1.30275e-05
1.69188e-05
1.99089e-05
2.1966e-05
2.32629e-05
2.40251e-05
2.44482e-05
2.46721e-05
2.47858e-05
2.48414e-05
2.48675e-05
2.48794e-05
2.48845e-05
2.48865e-05
2.48872e-05
2.48873e-05
2.48872e-05
2.48871e-05
2.4887e-05
2.48869e-05
2.48868e-05
2.48867e-05
2.48867e-05
2.48867e-05
2.48866e-05
2.48866e-05
2.48866e-05
2.48866e-05
2.48866e-05
2.48866e-05
2.48865e-05
2.4886e-05
2.48824e-05
2.486e-05
8.50247e-05
5.34699e-05
3.82865e-05
3.05194e-05
2.66458e-05
2.49089e-05
2.42976e-05
2.42165e-05
2.4337e-05
2.44986e-05
2.46373e-05
2.47374e-05
2.48027e-05
2.48419e-05
2.48606e-05
2.48481e-05
2.4737e-05
2.42982e-05
2.30068e-05
2.02015e-05
1.57484e-05
1.0449e-05
5.63242e-06
2.29551e-06
7.06695e-07
3.60327e-06
0.00015
0.00015
0.00015
0.00015
0.00015
0.00015
0.00015
0.00015
0.00015
0.00015
4.84438e-09
4.59971e-08
5.71384e-07
2.45962e-06
5.949e-06
1.03317e-05
1.46461e-05
1.82271e-05
2.0842e-05
2.25699e-05
2.36247e-05
2.42285e-05
2.45564e-05
2.47267e-05
2.48119e-05
2.48531e-05
2.48723e-05
2.4881e-05
2.48847e-05
2.48862e-05
2.48868e-05
2.48869e-05
2.48869e-05
2.48868e-05
2.48868e-05
2.48867e-05
2.48867e-05
2.48867e-05
2.48866e-05
2.48866e-05
2.48866e-05
2.48866e-05
2.48866e-05
2.48866e-05
2.48866e-05
2.48865e-05
2.4886e-05
2.48824e-05
2.486e-05
8.50245e-05
5.34678e-05
3.82814e-05
3.05122e-05
2.66383e-05
2.49029e-05
2.42936e-05
2.42142e-05
2.43357e-05
2.44978e-05
2.46368e-05
2.47369e-05
2.48021e-05
2.48409e-05
2.48569e-05
2.48306e-05
2.4663e-05
2.40443e-05
2.23575e-05
1.90307e-05
1.41913e-05
8.88519e-06
4.50877e-06
1.59478e-06
9.80404e-07
0.00015
0.00015
0.00015
0.00015
0.00015
0.00015
0.00015
0.00015
0.00015
0.00015
0.00015
0.00015
3.68029e-08
4.10805e-07
1.82123e-06
4.6602e-06
8.61448e-06
1.28997e-05
1.6758e-05
1.9768e-05
2.18644e-05
2.31978e-05
2.39863e-05
2.44257e-05
2.46589e-05
2.47777e-05
2.48361e-05
2.48639e-05
2.48768e-05
2.48826e-05
2.48851e-05
2.48861e-05
2.48865e-05
2.48867e-05
2.48867e-05
2.48867e-05
2.48866e-05
2.48866e-05
2.48866e-05
2.48866e-05
2.48866e-05
2.48866e-05
2.48866e-05
2.48866e-05
2.48866e-05
2.48866e-05
2.48865e-05
2.4886e-05
2.48824e-05
2.486e-05
8.50244e-05
5.3467e-05
3.82795e-05
3.051e-05
2.66371e-05
2.49034e-05
2.42961e-05
2.4218e-05
2.43401e-05
2.45022e-05
2.46408e-05
2.47404e-05
2.4805e-05
2.48431e-05
2.4857e-05
2.48214e-05
2.46154e-05
2.38793e-05
2.1962e-05
1.84031e-05
1.34316e-05
8.09338e-06
3.84518e-06
1.28987e-06
4.4935e-07
0.00015
0.00015
0.00015
0.00015
0.00015
0.00015
0.00015
0.00015
0.00015
0.00015
0.00015
0.00015
1.53978e-08
2.39839e-07
1.30173e-06
3.74313e-06
7.45119e-06
1.1726e-05
1.57598e-05
1.90244e-05
2.13652e-05
2.28892e-05
2.38076e-05
2.43274e-05
2.4607e-05
2.47511e-05
2.48228e-05
2.48573e-05
2.48735e-05
2.48809e-05
2.48842e-05
2.48857e-05
2.48863e-05
2.48865e-05
2.48866e-05
2.48866e-05
2.48866e-05
2.48866e-05
2.48866e-05
2.48866e-05
2.48866e-05
2.48866e-05
2.48866e-05
2.48866e-05
2.48866e-05
2.48865e-05
2.48865e-05
2.4886e-05
2.48824e-05
2.486e-05
8.50244e-05
5.34676e-05
3.82815e-05
3.05139e-05
2.66435e-05
2.49124e-05
2.43071e-05
2.42301e-05
2.43521e-05
2.45134e-05
2.46507e-05
2.4749e-05
2.48125e-05
2.48499e-05
2.48646e-05
2.48357e-05
2.46597e-05
2.40206e-05
2.23111e-05
1.89953e-05
1.41855e-05
8.88501e-06
4.50933e-06
1.67711e-06
8.0145e-07
0.00015
0.00015
0.00015
0.00015
0.00015
0.00015
0.00015
0.00015
0.00015
0.00015
0.00015
0.00015
3.29471e-08
3.77006e-07
1.71987e-06
4.46487e-06
8.32339e-06
1.2547e-05
1.63993e-05
1.94528e-05
2.1619e-05
2.30249e-05
2.38738e-05
2.43572e-05
2.46192e-05
2.47556e-05
2.48242e-05
2.48576e-05
2.48735e-05
2.48808e-05
2.48841e-05
2.48856e-05
2.48862e-05
2.48865e-05
2.48866e-05
2.48866e-05
2.48866e-05
2.48866e-05
2.48866e-05
2.48866e-05
2.48866e-05
2.48866e-05
2.48866e-05
2.48866e-05
2.48866e-05
2.48865e-05
2.48865e-05
2.4886e-05
2.48824e-05
2.486e-05
8.50246e-05
5.34697e-05
3.82869e-05
3.0523e-05
2.66559e-05
2.49273e-05
2.43231e-05
2.42462e-05
2.43673e-05
2.45271e-05
2.46628e-05
2.47594e-05
2.48216e-05
2.48583e-05
2.48749e-05
2.48593e-05
2.47396e-05
2.42798e-05
2.29632e-05
2.01656e-05
1.5758e-05
1.0502e-05
5.7065e-06
2.45054e-06
7.30098e-07
3.58599e-06
0.00015
0.00015
0.00015
0.00015
0.00015
0.00015
0.00015
0.00015
0.00015
0.00015
4.22439e-09
4.11587e-08
5.24208e-07
2.30041e-06
5.62148e-06
9.84543e-06
1.40771e-05
1.76719e-05
2.0372e-05
2.22144e-05
2.33788e-05
2.40702e-05
2.44602e-05
2.46708e-05
2.47805e-05
2.48358e-05
2.48629e-05
2.48758e-05
2.48818e-05
2.48846e-05
2.48858e-05
2.48863e-05
2.48865e-05
2.48866e-05
2.48866e-05
2.48866e-05
2.48866e-05
2.48866e-05
2.48866e-05
2.48866e-05
2.48866e-05
2.48866e-05
2.48866e-05
2.48866e-05
2.48865e-05
2.48865e-05
2.4886e-05
2.48824e-05
2.486e-05
8.5025e-05
5.34733e-05
3.82961e-05
3.05374e-05
2.66736e-05
2.49461e-05
2.43417e-05
2.42635e-05
2.4383e-05
2.45408e-05
2.46745e-05
2.47693e-05
2.48299e-05
2.48659e-05
2.4884e-05
2.48799e-05
2.48108e-05
2.452e-05
2.3616e-05
2.14905e-05
1.77672e-05
1.28275e-05
7.73701e-06
3.58856e-06
1.27158e-06
2.12485e-07
0.00015
0.00015
0.00015
0.00015
0.00015
0.00015
0.00015
0.00015
0.00015
0.00015
2.41519e-08
2.76597e-07
1.48317e-06
4.17008e-06
8.04592e-06
1.23013e-05
1.6176e-05
1.92505e-05
2.14456e-05
2.28877e-05
2.3774e-05
2.42898e-05
2.45767e-05
2.47303e-05
2.48099e-05
2.48499e-05
2.48695e-05
2.48788e-05
2.48832e-05
2.48852e-05
2.4886e-05
2.48864e-05
2.48865e-05
2.48866e-05
2.48866e-05
2.48866e-05
2.48866e-05
2.48866e-05
2.48866e-05
2.48866e-05
2.48866e-05
2.48866e-05
2.48866e-05
2.48866e-05
2.48865e-05
2.48865e-05
2.4886e-05
2.48824e-05
2.486e-05
8.50255e-05
5.34792e-05
3.83108e-05
3.05593e-05
2.66983e-05
2.497e-05
2.4363e-05
2.42818e-05
2.43984e-05
2.45536e-05
2.4685e-05
2.47778e-05
2.48368e-05
2.48717e-05
2.48905e-05
2.48943e-05
2.48622e-05
2.47059e-05
2.41752e-05
2.27875e-05
2.00221e-05
1.58045e-05
1.07776e-05
5.97764e-06
2.41257e-06
6.09214e-07
4.47996e-06
0.00015
0.00015
0.00015
0.00015
0.00015
0.00015
0.00015
0.00015
1.01973e-08
2.03134e-07
1.16346e-06
3.43622e-06
6.94986e-06
1.10649e-05
1.50285e-05
1.83256e-05
2.07749e-05
2.24394e-05
2.34929e-05
2.41226e-05
2.44814e-05
2.4678e-05
2.4782e-05
2.48355e-05
2.48623e-05
2.48753e-05
2.48815e-05
2.48844e-05
2.48857e-05
2.48863e-05
2.48865e-05
2.48866e-05
2.48866e-05
2.48866e-05
2.48866e-05
2.48866e-05
2.48866e-05
2.48866e-05
2.48866e-05
2.48866e-05
2.48866e-05
2.48866e-05
2.48866e-05
2.48865e-05
2.48865e-05
2.4886e-05
2.48824e-05
2.486e-05
8.50265e-05
5.34893e-05
3.8335e-05
3.0593e-05
2.67335e-05
2.50012e-05
2.43882e-05
2.43012e-05
2.44131e-05
2.45648e-05
2.46935e-05
2.47843e-05
2.48417e-05
2.48755e-05
2.48943e-05
2.49022e-05
2.48923e-05
2.48238e-05
2.45645e-05
2.38089e-05
2.20836e-05
1.90005e-05
1.46592e-05
9.74918e-06
5.28167e-06
2.17694e-06
4.68453e-07
9.5268e-08
0.00015
0.00015
0.00015
0.00015
0.00015
0.00015
1.82706e-08
1.99105e-07
1.10749e-06
3.26362e-06
6.60936e-06
1.05789e-05
1.44838e-05
1.78164e-05
2.03596e-05
2.21343e-05
2.32865e-05
2.39917e-05
2.44027e-05
2.46327e-05
2.47569e-05
2.4822e-05
2.48552e-05
2.48718e-05
2.48798e-05
2.48836e-05
2.48853e-05
2.48861e-05
2.48864e-05
2.48866e-05
2.48866e-05
2.48866e-05
2.48866e-05
2.48866e-05
2.48866e-05
2.48866e-05
2.48866e-05
2.48866e-05
2.48866e-05
2.48866e-05
2.48866e-05
2.48866e-05
2.48866e-05
2.48865e-05
2.4886e-05
2.48824e-05
2.486e-05
8.50283e-05
5.35077e-05
3.83765e-05
3.0647e-05
2.67861e-05
2.50439e-05
2.44189e-05
2.43218e-05
2.44265e-05
2.45735e-05
2.46992e-05
2.4788e-05
2.4844e-05
2.48769e-05
2.48953e-05
2.49049e-05
2.49058e-05
2.48832e-05
2.47803e-05
2.44448e-05
2.35749e-05
2.17618e-05
1.87133e-05
1.45437e-05
9.87397e-06
5.58001e-06
2.36759e-06
6.41286e-07
1.16163e-07
2.05798e-08
5.81016e-09
5.54597e-09
1.88542e-08
9.10062e-08
4.15205e-07
1.61926e-06
3.98606e-06
7.34075e-06
1.11437e-05
1.48185e-05
1.79555e-05
2.03761e-05
2.20941e-05
2.32319e-05
2.39431e-05
2.43666e-05
2.46086e-05
2.4742e-05
2.48134e-05
2.48505e-05
2.48693e-05
2.48786e-05
2.48831e-05
2.48852e-05
2.48862e-05
2.48866e-05
2.48868e-05
2.48868e-05
2.48869e-05
2.48869e-05
2.48869e-05
2.48869e-05
2.48869e-05
2.48869e-05
2.48869e-05
2.48869e-05
2.48868e-05
2.48868e-05
2.48868e-05
2.48868e-05
2.48868e-05
2.48868e-05
2.48863e-05
2.48827e-05
2.48603e-05
8.50318e-05
5.35439e-05
3.84513e-05
3.07372e-05
2.68674e-05
2.51045e-05
2.44581e-05
2.43445e-05
2.44387e-05
2.45797e-05
2.47023e-05
2.47897e-05
2.4845e-05
2.48775e-05
2.48957e-05
2.49059e-05
2.49109e-05
2.49076e-05
2.48765e-05
2.47575e-05
2.44096e-05
2.35823e-05
2.1957e-05
1.92972e-05
1.56554e-05
1.14638e-05
7.41512e-06
4.11919e-06
1.9053e-06
7.74957e-07
3.53914e-07
3.29173e-07
6.86656e-07
1.68359e-06
3.52502e-06
6.22886e-06
9.51802e-06
1.29554e-05
1.61465e-05
1.88277e-05
2.08958e-05
2.23776e-05
2.33741e-05
2.40086e-05
2.43942e-05
2.46192e-05
2.47459e-05
2.48151e-05
2.48518e-05
2.48708e-05
2.48804e-05
2.48851e-05
2.48874e-05
2.48884e-05
2.48889e-05
2.48891e-05
2.48892e-05
2.48892e-05
2.48892e-05
2.48892e-05
2.48892e-05
2.48892e-05
2.48892e-05
2.48892e-05
2.48892e-05
2.48892e-05
2.48892e-05
2.48892e-05
2.48892e-05
2.48892e-05
2.48892e-05
2.48892e-05
2.48887e-05
2.48851e-05
2.48626e-05
8.50396e-05
5.36172e-05
3.85872e-05
3.08859e-05
2.6992e-05
2.51928e-05
2.45137e-05
2.4378e-05
2.44602e-05
2.45955e-05
2.47161e-05
2.48029e-05
2.48583e-05
2.48911e-05
2.49097e-05
2.49205e-05
2.49271e-05
2.49306e-05
2.49262e-05
2.48948e-05
2.47857e-05
2.44925e-05
2.38409e-05
2.26182e-05
2.06647e-05
1.79905e-05
1.48424e-05
1.16227e-05
8.77573e-06
6.65568e-06
5.49235e-06
5.43327e-06
6.43303e-06
8.27005e-06
1.0662e-05
1.33217e-05
1.59602e-05
1.83403e-05
2.03173e-05
2.18441e-05
2.29491e-05
2.3704e-05
2.4194e-05
2.44982e-05
2.46797e-05
2.47841e-05
2.48424e-05
2.4874e-05
2.48907e-05
2.48993e-05
2.49036e-05
2.49057e-05
2.49067e-05
2.49072e-05
2.49074e-05
2.49075e-05
2.49075e-05
2.49075e-05
2.49075e-05
2.49075e-05
2.49075e-05
2.49075e-05
2.49075e-05
2.49075e-05
2.49075e-05
2.49075e-05
2.49075e-05
2.49075e-05
2.49075e-05
2.49075e-05
2.49075e-05
2.49075e-05
2.49069e-05
2.49033e-05
2.48808e-05
8.5058e-05
5.37639e-05
3.88118e-05
3.11038e-05
2.7173e-05
2.53411e-05
2.46413e-05
2.44947e-05
2.45717e-05
2.47057e-05
2.48266e-05
2.49143e-05
2.49709e-05
2.50046e-05
2.50241e-05
2.50354e-05
2.50427e-05
2.50482e-05
2.50517e-05
2.50483e-05
2.50228e-05
2.49403e-05
2.47347e-05
2.4307e-05
2.35493e-05
2.2395e-05
2.08756e-05
1.91405e-05
1.74345e-05
1.6038e-05
1.51966e-05
1.50679e-05
1.56462e-05
1.67499e-05
1.81411e-05
1.96016e-05
2.09645e-05
2.21266e-05
2.30465e-05
2.37294e-05
2.42085e-05
2.45282e-05
2.47321e-05
2.48572e-05
2.49313e-05
2.49738e-05
2.49976e-05
2.50107e-05
2.50177e-05
2.50214e-05
2.50233e-05
2.50244e-05
2.5025e-05
2.50253e-05
2.50255e-05
2.50256e-05
2.50257e-05
2.50258e-05
2.50258e-05
2.50259e-05
2.50259e-05
2.50259e-05
2.50259e-05
2.50259e-05
2.50259e-05
2.50259e-05
2.50259e-05
2.50259e-05
2.50259e-05
2.50259e-05
2.50259e-05
2.50259e-05
2.50254e-05
2.50217e-05
2.49989e-05
8.51037e-05
5.4014e-05
3.90811e-05
3.13705e-05
2.74883e-05
2.57379e-05
2.51224e-05
2.50446e-05
2.51679e-05
2.53241e-05
2.54505e-05
2.55352e-05
2.55856e-05
2.56128e-05
2.5626e-05
2.56317e-05
2.56335e-05
2.56333e-05
2.56316e-05
2.56273e-05
2.56159e-05
2.55865e-05
2.55178e-05
2.53751e-05
2.51156e-05
2.47054e-05
2.41423e-05
2.34734e-05
2.27938e-05
2.22224e-05
2.18645e-05
2.17786e-05
2.19739e-05
2.23887e-05
2.29276e-05
2.34965e-05
2.4025e-05
2.44723e-05
2.48244e-05
2.50857e-05
2.52704e-05
2.53957e-05
2.54781e-05
2.55311e-05
2.55646e-05
2.55858e-05
2.55992e-05
2.56078e-05
2.56135e-05
2.56173e-05
2.56199e-05
2.56218e-05
2.56232e-05
2.56242e-05
2.56249e-05
2.56255e-05
2.56259e-05
2.56262e-05
2.56264e-05
2.56266e-05
2.56268e-05
2.56269e-05
2.5627e-05
2.5627e-05
2.56271e-05
2.56271e-05
2.56271e-05
2.56271e-05
2.56272e-05
2.56272e-05
2.56272e-05
2.56271e-05
2.56266e-05
2.56227e-05
2.55992e-05
8.52023e-05
5.41576e-05
3.92123e-05
3.18202e-05
2.85027e-05
2.73066e-05
2.70794e-05
2.72061e-05
2.73964e-05
2.75462e-05
2.76376e-05
2.76825e-05
2.76975e-05
2.76955e-05
2.76842e-05
2.76675e-05
2.76468e-05
2.76222e-05
2.75925e-05
2.7556e-05
2.75099e-05
2.74492e-05
2.73662e-05
2.72499e-05
2.70885e-05
2.68749e-05
2.66141e-05
2.63291e-05
2.6059e-05
2.58474e-05
2.57269e-05
2.57155e-05
2.58131e-05
2.59971e-05
2.62324e-05
2.64835e-05
2.67229e-05
2.69341e-05
2.71102e-05
2.72512e-05
2.73608e-05
2.74444e-05
2.75074e-05
2.75544e-05
2.75895e-05
2.76156e-05
2.7635e-05
2.76496e-05
2.76606e-05
2.76688e-05
2.7675e-05
2.76797e-05
2.76832e-05
2.76858e-05
2.76878e-05
2.76893e-05
2.76904e-05
2.76913e-05
2.76919e-05
2.76924e-05
2.76928e-05
2.7693e-05
2.76932e-05
2.76934e-05
2.76935e-05
2.76936e-05
2.76936e-05
2.76937e-05
2.76937e-05
2.76937e-05
2.76938e-05
2.76937e-05
2.76931e-05
2.76887e-05
2.76636e-05
8.56065e-05
5.3719e-05
3.95967e-05
3.3727e-05
3.16759e-05
3.12827e-05
3.13639e-05
3.1475e-05
3.15237e-05
3.15221e-05
3.14944e-05
3.14563e-05
3.14154e-05
3.13736e-05
3.13307e-05
3.12851e-05
3.12344e-05
3.11758e-05
3.11059e-05
3.1021e-05
3.09175e-05
3.07913e-05
3.06389e-05
3.04586e-05
3.02522e-05
3.00276e-05
2.98003e-05
2.95935e-05
2.94329e-05
2.9339e-05
2.93228e-05
2.93854e-05
2.95189e-05
2.97056e-05
2.99223e-05
3.0148e-05
3.03648e-05
3.05607e-05
3.073e-05
3.08713e-05
3.09861e-05
3.10772e-05
3.11483e-05
3.12029e-05
3.12443e-05
3.12754e-05
3.12985e-05
3.13155e-05
3.1328e-05
3.13371e-05
3.13437e-05
3.13484e-05
3.13518e-05
3.13542e-05
3.1356e-05
3.13572e-05
3.1358e-05
3.13586e-05
3.1359e-05
3.13593e-05
3.13595e-05
3.13596e-05
3.13596e-05
3.13597e-05
3.13597e-05
3.13597e-05
3.13597e-05
3.13597e-05
3.13597e-05
3.13597e-05
3.13597e-05
3.13597e-05
3.1359e-05
3.13539e-05
3.1326e-05
)
;

boundaryField
{
    ibCylinder
    {
        type            immersedBoundaryKqRWallFunction;
        patchType       immersedBoundary;
        setDeadValue    true;
        deadValue       0.00015;
        value           nonuniform List<scalar> 0();
    }
    in
    {
        type            fixedValue;
        value           uniform 0.00015;
    }
    out
    {
        type            inletOutlet;
        inletValue      uniform 0.00015;
        value           nonuniform List<scalar> 
25
(
3.14157e-05
2.77354e-05
2.56513e-05
2.50223e-05
2.48879e-05
2.48643e-05
2.48606e-05
2.48601e-05
2.486e-05
2.486e-05
2.486e-05
2.486e-05
2.486e-05
2.486e-05
2.486e-05
2.486e-05
2.486e-05
2.486e-05
2.48603e-05
2.48626e-05
2.48808e-05
2.49989e-05
2.55992e-05
2.76636e-05
3.1326e-05
)
;
    }
    top
    {
        type            zeroGradient;
    }
    bottom
    {
        type            zeroGradient;
    }
    frontAndBack
    {
        type            empty;
    }
}


// ************************************************************************* //
