/*--------------------------------*- C++ -*----------------------------------*\
| =========                 |                                                 |
| \\      /  F ield         | OpenFOAM: The Open Source CFD Toolbox           |
|  \\    /   O peration     | Version:  2206                                  |
|   \\  /    A nd           | Website:  www.openfoam.com                      |
|    \\/     M anipulation  |                                                 |
\*---------------------------------------------------------------------------*/
FoamFile
{
    version     2.0;
    format      ascii;
    arch        "LSB;label=32;scalar=64";
    class       volScalarField;
    location    "0.2";
    object      nut;
}
// * * * * * * * * * * * * * * * * * * * * * * * * * * * * * * * * * * * * * //

dimensions      [0 2 -1 0 0 0 0];

internalField   nonuniform List<scalar> 
1875
(
2.91684e-07
2.90858e-07
3.07349e-07
3.44744e-07
3.93735e-07
4.39283e-07
4.71223e-07
4.89531e-07
4.98661e-07
5.02734e-07
5.04318e-07
5.04762e-07
5.04713e-07
5.04452e-07
5.04091e-07
5.03664e-07
5.0317e-07
5.02588e-07
5.01889e-07
5.01039e-07
4.99997e-07
4.98715e-07
4.97138e-07
4.9521e-07
4.92889e-07
4.90189e-07
4.87245e-07
4.84361e-07
4.81969e-07
4.805e-07
4.80238e-07
4.81227e-07
4.83254e-07
4.85905e-07
4.88763e-07
4.91528e-07
4.94015e-07
4.96147e-07
4.97921e-07
4.99368e-07
5.00532e-07
5.01457e-07
5.02184e-07
5.0275e-07
5.03185e-07
5.03518e-07
5.0377e-07
5.03959e-07
5.041e-07
5.04204e-07
5.04281e-07
5.04338e-07
5.04379e-07
5.04409e-07
5.04431e-07
5.04447e-07
5.04459e-07
5.04467e-07
5.04473e-07
5.04477e-07
5.0448e-07
5.04482e-07
5.04484e-07
5.04485e-07
5.04485e-07
5.04486e-07
5.04486e-07
5.04487e-07
5.04487e-07
5.04487e-07
5.04488e-07
5.0449e-07
5.04498e-07
5.04525e-07
5.04585e-07
2.90564e-07
2.85419e-07
2.89104e-07
3.05546e-07
3.34575e-07
3.69758e-07
4.02474e-07
4.27406e-07
4.43749e-07
4.53326e-07
4.58472e-07
4.61031e-07
4.62196e-07
4.62653e-07
4.62761e-07
4.62699e-07
4.62546e-07
4.62331e-07
4.62057e-07
4.6171e-07
4.61253e-07
4.6061e-07
4.59631e-07
4.5806e-07
4.55549e-07
4.51763e-07
4.46591e-07
4.4039e-07
4.34098e-07
4.2904e-07
4.2645e-07
4.27039e-07
4.30533e-07
4.35718e-07
4.41344e-07
4.46533e-07
4.50825e-07
4.5412e-07
4.56534e-07
4.58259e-07
4.59487e-07
4.60369e-07
4.61014e-07
4.61494e-07
4.61856e-07
4.62131e-07
4.62343e-07
4.62506e-07
4.62632e-07
4.62729e-07
4.62803e-07
4.62859e-07
4.62902e-07
4.62935e-07
4.6296e-07
4.62979e-07
4.62993e-07
4.63004e-07
4.63012e-07
4.63018e-07
4.63023e-07
4.63026e-07
4.63029e-07
4.63031e-07
4.63033e-07
4.63034e-07
4.63035e-07
4.63035e-07
4.63036e-07
4.63036e-07
4.63037e-07
4.63038e-07
4.63046e-07
4.63076e-07
4.63202e-07
2.9029e-07
2.84189e-07
2.84786e-07
2.94655e-07
3.14321e-07
3.40746e-07
3.68492e-07
3.92655e-07
4.10803e-07
4.22925e-07
4.30328e-07
4.34547e-07
4.36823e-07
4.37995e-07
4.38575e-07
4.38852e-07
4.38981e-07
4.39036e-07
4.3905e-07
4.39009e-07
4.38834e-07
4.3829e-07
4.3686e-07
4.336e-07
4.2718e-07
4.16266e-07
4.0029e-07
3.80231e-07
3.58982e-07
3.40838e-07
3.30271e-07
3.30477e-07
3.41223e-07
3.58134e-07
3.76888e-07
3.94416e-07
4.0882e-07
4.19534e-07
4.2689e-07
4.3163e-07
4.34541e-07
4.36271e-07
4.37283e-07
4.37878e-07
4.38237e-07
4.38462e-07
4.38611e-07
4.38715e-07
4.3879e-07
4.38847e-07
4.38889e-07
4.38923e-07
4.38948e-07
4.38968e-07
4.38983e-07
4.38995e-07
4.39004e-07
4.39011e-07
4.39016e-07
4.3902e-07
4.39023e-07
4.39026e-07
4.39028e-07
4.39029e-07
4.3903e-07
4.39031e-07
4.39031e-07
4.39032e-07
4.39032e-07
4.39033e-07
4.39033e-07
4.39034e-07
4.39039e-07
4.39058e-07
4.39135e-07
2.90207e-07
2.83865e-07
2.83874e-07
2.92407e-07
3.09888e-07
3.33789e-07
3.5949e-07
3.82564e-07
4.0053e-07
4.13045e-07
4.21043e-07
4.25821e-07
4.28532e-07
4.3001e-07
4.30793e-07
4.31203e-07
4.31421e-07
4.31538e-07
4.31576e-07
4.31445e-07
4.30814e-07
4.28817e-07
4.23629e-07
4.12208e-07
3.90835e-07
3.56912e-07
3.11455e-07
2.60043e-07
2.11405e-07
1.73768e-07
1.52357e-07
1.51701e-07
1.71872e-07
2.06404e-07
2.4902e-07
2.94097e-07
3.35209e-07
3.68405e-07
3.9251e-07
4.08543e-07
4.18477e-07
4.24296e-07
4.27559e-07
4.29333e-07
4.30281e-07
4.30786e-07
4.31059e-07
4.31213e-07
4.31304e-07
4.31363e-07
4.31403e-07
4.31432e-07
4.31453e-07
4.3147e-07
4.31482e-07
4.31492e-07
4.31499e-07
4.31505e-07
4.3151e-07
4.31513e-07
4.31516e-07
4.31518e-07
4.3152e-07
4.31521e-07
4.31522e-07
4.31523e-07
4.31523e-07
4.31524e-07
4.31524e-07
4.31524e-07
4.31525e-07
4.31526e-07
4.31529e-07
4.31542e-07
4.31582e-07
2.90185e-07
2.83782e-07
2.83774e-07
2.92343e-07
3.09753e-07
3.33334e-07
3.58523e-07
3.81098e-07
3.98734e-07
4.11101e-07
4.19078e-07
4.23898e-07
4.26664e-07
4.28187e-07
4.29e-07
4.29424e-07
4.29636e-07
4.29706e-07
4.29562e-07
4.28803e-07
4.26218e-07
4.18954e-07
4.0179e-07
3.67908e-07
3.12844e-07
2.40327e-07
1.63991e-07
9.94488e-08
5.54976e-08
3.12235e-08
2.0411e-08
1.99857e-08
2.97624e-08
5.13609e-08
8.71622e-08
1.39596e-07
2.02487e-07
2.66477e-07
3.21833e-07
3.63425e-07
3.91312e-07
4.08451e-07
4.18324e-07
4.23746e-07
4.26626e-07
4.28123e-07
4.28893e-07
4.29292e-07
4.29503e-07
4.29621e-07
4.2969e-07
4.29734e-07
4.29764e-07
4.29785e-07
4.29801e-07
4.29813e-07
4.29822e-07
4.29829e-07
4.29835e-07
4.29839e-07
4.29842e-07
4.29844e-07
4.29846e-07
4.29848e-07
4.29849e-07
4.2985e-07
4.2985e-07
4.29851e-07
4.29851e-07
4.29852e-07
4.29852e-07
4.29853e-07
4.29856e-07
4.29866e-07
4.2989e-07
2.9018e-07
2.83765e-07
2.83823e-07
2.92638e-07
3.10413e-07
3.34261e-07
3.59459e-07
3.81802e-07
3.99114e-07
4.11198e-07
4.18977e-07
4.23679e-07
4.2638e-07
4.2787e-07
4.28662e-07
4.29065e-07
4.29233e-07
4.29149e-07
4.2843e-07
4.25704e-07
4.1736e-07
3.96219e-07
3.52613e-07
2.81296e-07
1.91462e-07
1.06182e-07
4.61797e-08
1.52851e-08
3.77903e-09
8.5845e-10
2.36287e-10
2.08764e-10
6.78539e-10
2.93562e-09
1.03369e-08
3.11785e-08
7.1698e-08
1.33292e-07
2.07351e-07
2.78938e-07
3.36208e-07
3.75645e-07
3.99983e-07
4.13892e-07
4.21429e-07
4.25367e-07
4.27375e-07
4.28387e-07
4.28898e-07
4.2916e-07
4.29299e-07
4.29378e-07
4.29425e-07
4.29456e-07
4.29477e-07
4.29493e-07
4.29504e-07
4.29512e-07
4.29519e-07
4.29524e-07
4.29528e-07
4.29531e-07
4.29533e-07
4.29535e-07
4.29536e-07
4.29537e-07
4.29538e-07
4.29538e-07
4.29539e-07
4.29539e-07
4.2954e-07
4.29541e-07
4.29543e-07
4.29552e-07
4.29572e-07
2.90178e-07
2.83762e-07
2.83871e-07
2.92884e-07
3.1099e-07
3.35147e-07
3.60468e-07
3.82717e-07
3.99807e-07
4.1165e-07
4.19235e-07
4.23801e-07
4.26418e-07
4.27857e-07
4.28615e-07
4.28981e-07
4.29043e-07
4.28542e-07
4.26243e-07
4.18422e-07
3.96855e-07
3.49685e-07
2.70645e-07
1.72575e-07
8.47154e-08
2.91699e-08
5.87276e-09
6.20541e-10
4.35028e-11
2.35004e-12
2.56513e-13
2.63084e-13
2.24379e-12
2.93373e-11
2.91041e-10
2.70473e-09
1.31383e-08
4.16882e-08
9.55638e-08
1.7057e-07
2.50408e-07
3.17806e-07
3.65269e-07
3.94642e-07
4.11303e-07
4.20224e-07
4.24819e-07
4.27126e-07
4.28269e-07
4.28833e-07
4.29115e-07
4.29261e-07
4.2934e-07
4.29385e-07
4.29414e-07
4.29433e-07
4.29446e-07
4.29456e-07
4.29464e-07
4.29469e-07
4.29473e-07
4.29477e-07
4.29479e-07
4.29481e-07
4.29482e-07
4.29484e-07
4.29484e-07
4.29485e-07
4.29486e-07
4.29486e-07
4.29486e-07
4.29487e-07
4.2949e-07
4.29499e-07
4.29517e-07
2.90177e-07
2.8376e-07
2.839e-07
2.93038e-07
3.11374e-07
3.35769e-07
3.61212e-07
3.83427e-07
4.00379e-07
4.12055e-07
4.19493e-07
4.23954e-07
4.265e-07
4.27894e-07
4.28617e-07
4.28918e-07
4.28738e-07
4.27234e-07
4.21326e-07
4.03092e-07
3.59291e-07
2.80741e-07
1.78961e-07
8.59354e-08
2.76466e-08
4.64826e-09
2.33949e-10
2.23022e-11
1e-06
1e-06
1e-06
1e-06
1e-06
1e-06
1.713e-12
1.17601e-10
1.70319e-09
9.95889e-09
3.5003e-08
8.56617e-08
1.60172e-07
2.42437e-07
3.13165e-07
3.63143e-07
3.9389e-07
4.11149e-07
4.20277e-07
4.24918e-07
4.27218e-07
4.2834e-07
4.28884e-07
4.29151e-07
4.29286e-07
4.29356e-07
4.29396e-07
4.2942e-07
4.29436e-07
4.29447e-07
4.29454e-07
4.2946e-07
4.29464e-07
4.29468e-07
4.2947e-07
4.29472e-07
4.29474e-07
4.29475e-07
4.29476e-07
4.29476e-07
4.29477e-07
4.29477e-07
4.29478e-07
4.29479e-07
4.29482e-07
4.2949e-07
4.29509e-07
2.90176e-07
2.83758e-07
2.83915e-07
2.93127e-07
3.11612e-07
3.36172e-07
3.61711e-07
3.8392e-07
4.00788e-07
4.12355e-07
4.19694e-07
4.24079e-07
4.26574e-07
4.27931e-07
4.28616e-07
4.28803e-07
4.28131e-07
4.2464e-07
4.12175e-07
3.77781e-07
3.07781e-07
2.06797e-07
1.05418e-07
3.63959e-08
6.70154e-09
3.87642e-10
2.53257e-10
1e-06
1e-06
1e-06
1e-06
1e-06
1e-06
1e-06
1e-06
6.84537e-13
1.50018e-10
1.9523e-09
1.1621e-08
3.9687e-08
9.4231e-08
1.7142e-07
2.53582e-07
3.22013e-07
3.69139e-07
3.97553e-07
4.13248e-07
4.21435e-07
4.25546e-07
4.27559e-07
4.28529e-07
4.28993e-07
4.29217e-07
4.29328e-07
4.29385e-07
4.29416e-07
4.29434e-07
4.29446e-07
4.29454e-07
4.2946e-07
4.29464e-07
4.29467e-07
4.29469e-07
4.29471e-07
4.29473e-07
4.29474e-07
4.29475e-07
4.29475e-07
4.29476e-07
4.29476e-07
4.29477e-07
4.29477e-07
4.2948e-07
4.29489e-07
4.29507e-07
2.90176e-07
2.83757e-07
2.83921e-07
2.93177e-07
3.11755e-07
3.36425e-07
3.62035e-07
3.84247e-07
4.01067e-07
4.12565e-07
4.19838e-07
4.24172e-07
4.26631e-07
4.27961e-07
4.28597e-07
4.28596e-07
4.27092e-07
4.20448e-07
3.98716e-07
3.45654e-07
2.54239e-07
1.46085e-07
5.95953e-08
1.48353e-08
1.44539e-09
3.43674e-11
1e-06
1e-06
1e-06
1e-06
1e-06
1e-06
1e-06
1e-06
1e-06
1e-06
4.0098e-12
1.51891e-10
2.31534e-09
1.41554e-08
4.84355e-08
1.11928e-07
1.94851e-07
2.75909e-07
3.38731e-07
3.79785e-07
4.03677e-07
4.16559e-07
4.23162e-07
4.26432e-07
4.28012e-07
4.28764e-07
4.2912e-07
4.29289e-07
4.29371e-07
4.29413e-07
4.29435e-07
4.29448e-07
4.29456e-07
4.29461e-07
4.29465e-07
4.29468e-07
4.2947e-07
4.29472e-07
4.29473e-07
4.29474e-07
4.29475e-07
4.29475e-07
4.29476e-07
4.29476e-07
4.29476e-07
4.29477e-07
4.2948e-07
4.29489e-07
4.29507e-07
2.90175e-07
2.83756e-07
2.83922e-07
2.93202e-07
3.11836e-07
3.36575e-07
3.62234e-07
3.84454e-07
4.01247e-07
4.12702e-07
4.19935e-07
4.24237e-07
4.26671e-07
4.27977e-07
4.28552e-07
4.28279e-07
4.25609e-07
4.14899e-07
3.82852e-07
3.13492e-07
2.0967e-07
1.04819e-07
3.56399e-08
7.20524e-09
6.94838e-10
1.28136e-10
1e-06
1e-06
1e-06
1e-06
1e-06
1e-06
1e-06
1e-06
1e-06
1e-06
1.9202e-13
8.80064e-12
3.82928e-10
4.3581e-09
2.22328e-08
6.72527e-08
1.41107e-07
2.27131e-07
3.03143e-07
3.57579e-07
3.91212e-07
4.10043e-07
4.19924e-07
4.24884e-07
4.27297e-07
4.28446e-07
4.28984e-07
4.29235e-07
4.29353e-07
4.29408e-07
4.29436e-07
4.29451e-07
4.29459e-07
4.29464e-07
4.29467e-07
4.2947e-07
4.29472e-07
4.29473e-07
4.29474e-07
4.29475e-07
4.29475e-07
4.29476e-07
4.29476e-07
4.29476e-07
4.29477e-07
4.29477e-07
4.2948e-07
4.29489e-07
4.29507e-07
2.90175e-07
2.83754e-07
2.83921e-07
2.93212e-07
3.11875e-07
3.36655e-07
3.62344e-07
3.8457e-07
4.01348e-07
4.1278e-07
4.19988e-07
4.2427e-07
4.26689e-07
4.27974e-07
4.28479e-07
4.27875e-07
4.23813e-07
4.08603e-07
3.66819e-07
2.85982e-07
1.77377e-07
7.99705e-08
2.41822e-08
3.5702e-09
3.55961e-10
1e-06
1e-06
1e-06
1e-06
1e-06
1e-06
1e-06
1e-06
1e-06
1e-06
1e-06
1e-06
1.38169e-11
4.74326e-10
4.27811e-09
1.8982e-08
5.49247e-08
1.16921e-07
1.96373e-07
2.74776e-07
3.36858e-07
3.78324e-07
4.02847e-07
4.1619e-07
4.23047e-07
4.26432e-07
4.28054e-07
4.28814e-07
4.29166e-07
4.29327e-07
4.29401e-07
4.29436e-07
4.29453e-07
4.29462e-07
4.29467e-07
4.2947e-07
4.29472e-07
4.29473e-07
4.29474e-07
4.29475e-07
4.29475e-07
4.29476e-07
4.29476e-07
4.29476e-07
4.29476e-07
4.29477e-07
4.29477e-07
4.2948e-07
4.29489e-07
4.29507e-07
2.90175e-07
2.83753e-07
2.8392e-07
2.93218e-07
3.11899e-07
3.36704e-07
3.62408e-07
3.84634e-07
4.01399e-07
4.12811e-07
4.20001e-07
4.24269e-07
4.26678e-07
4.2795e-07
4.28406e-07
4.27565e-07
4.22513e-07
4.04254e-07
3.56808e-07
2.71268e-07
1.61085e-07
6.6992e-08
1.89464e-08
2.62868e-09
1.35152e-10
1e-06
1e-06
1e-06
1e-06
1e-06
1e-06
1e-06
1e-06
1e-06
1e-06
1e-06
1e-06
4.80436e-12
2.6463e-10
2.97642e-09
1.46457e-08
4.51298e-08
1.00793e-07
1.76483e-07
2.55894e-07
3.22436e-07
3.68971e-07
3.97442e-07
4.13307e-07
4.21595e-07
4.25733e-07
4.2773e-07
4.28671e-07
4.29105e-07
4.29304e-07
4.29394e-07
4.29435e-07
4.29454e-07
4.29464e-07
4.29468e-07
4.29471e-07
4.29473e-07
4.29474e-07
4.29475e-07
4.29475e-07
4.29476e-07
4.29476e-07
4.29476e-07
4.29476e-07
4.29477e-07
4.29477e-07
4.29478e-07
4.2948e-07
4.29489e-07
4.29507e-07
2.90175e-07
2.83754e-07
2.83922e-07
2.93227e-07
3.1192e-07
3.36736e-07
3.62443e-07
3.84658e-07
4.01405e-07
4.12798e-07
4.19974e-07
4.24233e-07
4.26638e-07
4.27912e-07
4.28399e-07
4.27723e-07
4.23394e-07
4.07511e-07
3.64952e-07
2.84249e-07
1.75864e-07
7.85996e-08
2.39208e-08
3.82909e-09
2.90987e-10
1e-06
1e-06
1e-06
1e-06
1e-06
1e-06
1e-06
1e-06
1e-06
1e-06
1e-06
1e-06
1.23693e-11
4.37452e-10
4.13931e-09
1.85337e-08
5.34211e-08
1.13367e-07
1.90615e-07
2.68e-07
3.30674e-07
3.73656e-07
3.99775e-07
4.14359e-07
4.22033e-07
4.25903e-07
4.27793e-07
4.28693e-07
4.29114e-07
4.29308e-07
4.29396e-07
4.29437e-07
4.29456e-07
4.29465e-07
4.29469e-07
4.29472e-07
4.29473e-07
4.29474e-07
4.29475e-07
4.29476e-07
4.29476e-07
4.29476e-07
4.29476e-07
4.29477e-07
4.29477e-07
4.29477e-07
4.29478e-07
4.2948e-07
4.29489e-07
4.29507e-07
2.90175e-07
2.83755e-07
2.83926e-07
2.93233e-07
3.11924e-07
3.3673e-07
3.6242e-07
3.84617e-07
4.01349e-07
4.12734e-07
4.19906e-07
4.24166e-07
4.26574e-07
4.27862e-07
4.28415e-07
4.28067e-07
4.25129e-07
4.13731e-07
3.80771e-07
3.11286e-07
2.08071e-07
1.03921e-07
3.55993e-08
7.7853e-09
7.19492e-10
1.27522e-10
1e-06
1e-06
1e-06
1e-06
1e-06
1e-06
1e-06
1e-06
1e-06
1e-06
1.67445e-13
7.83179e-12
3.53221e-10
4.12458e-09
2.10839e-08
6.34794e-08
1.33186e-07
2.15919e-07
2.91508e-07
3.47967e-07
3.84448e-07
4.0579e-07
4.17461e-07
4.23547e-07
4.26613e-07
4.28115e-07
4.28836e-07
4.29176e-07
4.29334e-07
4.29408e-07
4.29442e-07
4.29458e-07
4.29466e-07
4.2947e-07
4.29472e-07
4.29474e-07
4.29475e-07
4.29475e-07
4.29476e-07
4.29476e-07
4.29476e-07
4.29476e-07
4.29477e-07
4.29477e-07
4.29477e-07
4.29478e-07
4.2948e-07
4.29489e-07
4.29507e-07
2.90175e-07
2.83756e-07
2.83927e-07
2.93224e-07
3.11889e-07
3.36655e-07
3.6231e-07
3.84488e-07
4.01218e-07
4.12612e-07
4.198e-07
4.24074e-07
4.26496e-07
4.27804e-07
4.28418e-07
4.28359e-07
4.26654e-07
4.19453e-07
3.96781e-07
3.4316e-07
2.522e-07
1.45071e-07
5.94186e-08
1.46679e-08
1.91387e-09
3.00346e-11
1e-06
1e-06
1e-06
1e-06
1e-06
1e-06
1e-06
1e-06
1e-06
1e-06
3.58951e-12
1.38554e-10
1.98142e-09
1.20334e-08
4.19329e-08
9.94063e-08
1.77764e-07
2.58172e-07
3.23837e-07
3.69083e-07
3.96795e-07
4.12481e-07
4.20897e-07
4.25242e-07
4.27423e-07
4.28493e-07
4.29008e-07
4.29253e-07
4.29368e-07
4.29423e-07
4.29448e-07
4.29461e-07
4.29467e-07
4.29471e-07
4.29473e-07
4.29474e-07
4.29475e-07
4.29475e-07
4.29476e-07
4.29476e-07
4.29476e-07
4.29476e-07
4.29477e-07
4.29477e-07
4.29477e-07
4.29478e-07
4.2948e-07
4.29489e-07
4.29507e-07
2.90176e-07
2.83757e-07
2.83924e-07
2.93194e-07
3.11797e-07
3.36487e-07
3.62085e-07
3.84246e-07
4.00994e-07
4.12425e-07
4.19651e-07
4.23959e-07
4.26409e-07
4.27741e-07
4.28406e-07
4.28554e-07
4.27746e-07
4.23845e-07
4.10517e-07
3.75186e-07
3.05154e-07
2.05103e-07
1.0484e-07
3.63675e-08
7.09165e-09
3.99937e-10
2.51038e-10
1e-06
1e-06
1e-06
1e-06
1e-06
1e-06
1e-06
1e-06
6.00471e-13
1.38223e-10
1.81992e-09
1.01639e-08
3.44039e-08
8.27985e-08
1.53916e-07
2.33451e-07
3.037e-07
3.55197e-07
3.88212e-07
4.07539e-07
4.18183e-07
4.23802e-07
4.26678e-07
4.28115e-07
4.28819e-07
4.2916e-07
4.29323e-07
4.294e-07
4.29437e-07
4.29455e-07
4.29464e-07
4.29469e-07
4.29472e-07
4.29473e-07
4.29474e-07
4.29475e-07
4.29476e-07
4.29476e-07
4.29476e-07
4.29476e-07
4.29477e-07
4.29477e-07
4.29477e-07
4.29477e-07
4.29478e-07
4.29481e-07
4.29489e-07
4.29507e-07
2.90176e-07
2.83758e-07
2.83913e-07
2.93128e-07
3.1162e-07
3.36182e-07
3.61697e-07
3.83849e-07
4.00648e-07
4.12154e-07
4.19453e-07
4.2382e-07
4.26314e-07
4.2768e-07
4.28386e-07
4.28663e-07
4.28403e-07
4.26644e-07
4.20093e-07
4.00812e-07
3.56247e-07
2.78073e-07
1.77778e-07
8.616e-08
2.90467e-08
5.37362e-09
2.48226e-10
7.81962e-12
1e-06
1e-06
1e-06
1e-06
1e-06
1e-06
1.51991e-12
1.08497e-10
1.57215e-09
9.17601e-09
3.14572e-08
7.62247e-08
1.43236e-07
2.20621e-07
2.91726e-07
3.45956e-07
3.81965e-07
4.03678e-07
4.15939e-07
4.22554e-07
4.26006e-07
4.27763e-07
4.28639e-07
4.29069e-07
4.29278e-07
4.29378e-07
4.29427e-07
4.2945e-07
4.29462e-07
4.29468e-07
4.29472e-07
4.29474e-07
4.29475e-07
4.29476e-07
4.29476e-07
4.29477e-07
4.29477e-07
4.29477e-07
4.29478e-07
4.29478e-07
4.29478e-07
4.29478e-07
4.29478e-07
4.29479e-07
4.29482e-07
4.2949e-07
4.29508e-07
2.90177e-07
2.8376e-07
2.8389e-07
2.93004e-07
3.1131e-07
3.35674e-07
3.61079e-07
3.83245e-07
4.00144e-07
4.11781e-07
4.192e-07
4.23659e-07
4.26217e-07
4.27628e-07
4.28374e-07
4.28724e-07
4.28746e-07
4.28114e-07
4.25448e-07
4.16864e-07
3.94321e-07
3.46848e-07
2.69022e-07
1.72775e-07
8.60783e-08
3.0993e-08
6.36634e-09
6.45541e-10
3.51957e-11
2.19685e-12
2.55674e-13
2.46537e-13
2.04502e-12
2.77386e-11
2.76553e-10
2.53569e-09
1.20626e-08
3.71023e-08
8.38146e-08
1.50225e-07
2.24775e-07
2.92796e-07
3.4514e-07
3.80536e-07
4.02356e-07
4.14962e-07
4.21915e-07
4.25621e-07
4.27545e-07
4.28522e-07
4.2901e-07
4.2925e-07
4.29368e-07
4.29425e-07
4.29453e-07
4.29467e-07
4.29474e-07
4.29478e-07
4.2948e-07
4.29481e-07
4.29482e-07
4.29483e-07
4.29484e-07
4.29484e-07
4.29484e-07
4.29484e-07
4.29484e-07
4.29485e-07
4.29485e-07
4.29485e-07
4.29485e-07
4.29486e-07
4.29488e-07
4.29497e-07
4.29515e-07
2.90179e-07
2.83763e-07
2.83849e-07
2.92798e-07
3.10821e-07
3.34913e-07
3.60194e-07
3.82421e-07
3.99499e-07
4.11339e-07
4.18931e-07
4.23518e-07
4.26161e-07
4.27627e-07
4.28412e-07
4.2881e-07
4.28959e-07
4.28817e-07
4.27932e-07
4.24814e-07
4.15805e-07
3.94073e-07
3.50822e-07
2.81318e-07
1.93782e-07
1.0952e-07
4.87322e-08
1.66711e-08
4.16332e-09
9.11421e-10
2.4489e-10
2.07781e-10
6.53928e-10
2.79389e-09
9.66205e-09
2.71113e-08
6.12975e-08
1.14188e-07
1.80554e-07
2.49223e-07
3.09115e-07
3.54462e-07
3.85236e-07
4.04492e-07
4.15845e-07
4.2225e-07
4.25741e-07
4.27593e-07
4.28553e-07
4.29042e-07
4.29287e-07
4.29408e-07
4.29468e-07
4.29497e-07
4.29512e-07
4.29519e-07
4.29523e-07
4.29525e-07
4.29526e-07
4.29527e-07
4.29528e-07
4.29528e-07
4.29528e-07
4.29529e-07
4.29529e-07
4.29529e-07
4.29529e-07
4.29529e-07
4.29529e-07
4.29529e-07
4.29529e-07
4.2953e-07
4.29533e-07
4.29542e-07
4.2956e-07
2.90184e-07
2.83779e-07
2.83812e-07
2.92549e-07
3.10249e-07
3.34084e-07
3.59321e-07
3.81718e-07
3.99065e-07
4.11162e-07
4.18949e-07
4.23665e-07
4.26388e-07
4.27903e-07
4.28722e-07
4.2915e-07
4.29358e-07
4.29405e-07
4.29195e-07
4.28278e-07
4.25386e-07
4.17725e-07
4.00442e-07
3.674e-07
3.14503e-07
2.44642e-07
1.6987e-07
1.05066e-07
5.95666e-08
3.35839e-08
2.16805e-08
2.02457e-08
2.79862e-08
4.60373e-08
7.65634e-08
1.21002e-07
1.76634e-07
2.36529e-07
2.92439e-07
3.38394e-07
3.72332e-07
3.95337e-07
4.09922e-07
4.187e-07
4.23771e-07
4.26603e-07
4.28141e-07
4.28956e-07
4.29379e-07
4.29594e-07
4.29702e-07
4.29756e-07
4.29782e-07
4.29795e-07
4.29801e-07
4.29804e-07
4.29805e-07
4.29806e-07
4.29807e-07
4.29807e-07
4.29807e-07
4.29808e-07
4.29808e-07
4.29808e-07
4.29808e-07
4.29808e-07
4.29808e-07
4.29808e-07
4.29808e-07
4.29808e-07
4.29808e-07
4.29809e-07
4.29812e-07
4.29821e-07
4.2984e-07
2.90206e-07
2.83861e-07
2.83924e-07
2.92654e-07
3.10427e-07
3.34522e-07
3.60157e-07
3.82946e-07
4.00572e-07
4.12824e-07
4.20674e-07
4.25402e-07
4.28117e-07
4.29622e-07
4.30435e-07
4.30868e-07
4.31096e-07
4.31209e-07
4.31222e-07
4.31033e-07
4.30287e-07
4.28117e-07
4.22791e-07
4.11547e-07
3.91072e-07
3.5897e-07
3.15922e-07
2.66612e-07
2.18863e-07
1.8054e-07
1.56853e-07
1.51541e-07
1.64578e-07
1.91865e-07
2.28624e-07
2.69845e-07
3.10304e-07
3.45781e-07
3.74018e-07
3.94727e-07
4.08914e-07
4.18101e-07
4.23776e-07
4.27148e-07
4.29085e-07
4.30167e-07
4.30755e-07
4.31069e-07
4.31232e-07
4.31315e-07
4.31358e-07
4.31379e-07
4.31389e-07
4.31395e-07
4.31398e-07
4.31399e-07
4.314e-07
4.314e-07
4.31401e-07
4.31401e-07
4.31401e-07
4.31401e-07
4.31402e-07
4.31402e-07
4.31402e-07
4.31402e-07
4.31402e-07
4.31402e-07
4.31402e-07
4.31402e-07
4.31402e-07
4.31403e-07
4.31406e-07
4.31416e-07
4.31439e-07
2.90288e-07
2.84183e-07
2.8484e-07
2.94895e-07
3.14775e-07
3.41215e-07
3.68697e-07
3.92469e-07
4.10304e-07
4.22277e-07
4.29673e-07
4.33959e-07
4.36326e-07
4.37582e-07
4.38225e-07
4.38542e-07
4.38692e-07
4.38752e-07
4.38756e-07
4.3869e-07
4.3847e-07
4.37858e-07
4.36355e-07
4.33092e-07
4.2688e-07
4.16542e-07
4.01554e-07
3.82671e-07
3.62253e-07
3.43887e-07
3.31353e-07
3.27522e-07
3.33259e-07
3.46239e-07
3.6302e-07
3.8046e-07
3.96293e-07
4.09307e-07
4.19195e-07
4.26244e-07
4.31012e-07
4.34099e-07
4.36027e-07
4.37198e-07
4.37895e-07
4.38303e-07
4.38541e-07
4.3868e-07
4.38762e-07
4.38812e-07
4.38844e-07
4.38864e-07
4.38878e-07
4.38888e-07
4.38895e-07
4.389e-07
4.38904e-07
4.38907e-07
4.38909e-07
4.38911e-07
4.38912e-07
4.38913e-07
4.38914e-07
4.38915e-07
4.38915e-07
4.38915e-07
4.38916e-07
4.38916e-07
4.38916e-07
4.38916e-07
4.38916e-07
4.38918e-07
4.38922e-07
4.38938e-07
4.38979e-07
2.90562e-07
2.85412e-07
2.8913e-07
3.05653e-07
3.34695e-07
3.6966e-07
4.0204e-07
4.26762e-07
4.43117e-07
4.52868e-07
4.5824e-07
4.61008e-07
4.62333e-07
4.62899e-07
4.63073e-07
4.63044e-07
4.62902e-07
4.62681e-07
4.62388e-07
4.62011e-07
4.61514e-07
4.60822e-07
4.59787e-07
4.58173e-07
4.55666e-07
4.51973e-07
4.46995e-07
4.41015e-07
4.34781e-07
4.2936e-07
4.25796e-07
4.24883e-07
4.26838e-07
4.31035e-07
4.36432e-07
4.42042e-07
4.47167e-07
4.51452e-07
4.54812e-07
4.57325e-07
4.59144e-07
4.60432e-07
4.61334e-07
4.61963e-07
4.62403e-07
4.62713e-07
4.62934e-07
4.63093e-07
4.6321e-07
4.63296e-07
4.6336e-07
4.63408e-07
4.63443e-07
4.6347e-07
4.6349e-07
4.63505e-07
4.63516e-07
4.63525e-07
4.63531e-07
4.63536e-07
4.6354e-07
4.63543e-07
4.63545e-07
4.63546e-07
4.63547e-07
4.63548e-07
4.63549e-07
4.63549e-07
4.6355e-07
4.6355e-07
4.63551e-07
4.63553e-07
4.63564e-07
4.63601e-07
4.6371e-07
2.91694e-07
2.90903e-07
3.07367e-07
3.44509e-07
3.93105e-07
4.38476e-07
4.70634e-07
4.89416e-07
4.99063e-07
5.03566e-07
5.05459e-07
5.06103e-07
5.0617e-07
5.05968e-07
5.0563e-07
5.05203e-07
5.04691e-07
5.04079e-07
5.03339e-07
5.02438e-07
5.01336e-07
4.99987e-07
4.98338e-07
4.96342e-07
4.93967e-07
4.91238e-07
4.88286e-07
4.85378e-07
4.82886e-07
4.81183e-07
4.80549e-07
4.81119e-07
4.82833e-07
4.85398e-07
4.88407e-07
4.91492e-07
4.94375e-07
4.96897e-07
4.99003e-07
5.00703e-07
5.02043e-07
5.03079e-07
5.03871e-07
5.04469e-07
5.04918e-07
5.05253e-07
5.05501e-07
5.05684e-07
5.05819e-07
5.05917e-07
5.05989e-07
5.06041e-07
5.06078e-07
5.06106e-07
5.06126e-07
5.0614e-07
5.0615e-07
5.06157e-07
5.06162e-07
5.06166e-07
5.06168e-07
5.0617e-07
5.06171e-07
5.06171e-07
5.06172e-07
5.06172e-07
5.06172e-07
5.06172e-07
5.06172e-07
5.06173e-07
5.06174e-07
5.0618e-07
5.06206e-07
5.06299e-07
5.06568e-07
)
;

boundaryField
{
    ibCylinder
    {
        type            immersedBoundaryNutWallFunction;
        patchType       immersedBoundary;
        blending        stepwise;
        value           nonuniform List<scalar> 0();
    }
    in
    {
        type            zeroGradient;
    }
    out
    {
        type            zeroGradient;
    }
    top
    {
        type            zeroGradient;
    }
    bottom
    {
        type            zeroGradient;
    }
    frontAndBack
    {
        type            empty;
    }
}


// ************************************************************************* //
