/*--------------------------------*- C++ -*----------------------------------*\
| =========                 |                                                 |
| \\      /  F ield         | OpenFOAM: The Open Source CFD Toolbox           |
|  \\    /   O peration     | Version:  2206                                  |
|   \\  /    A nd           | Website:  www.openfoam.com                      |
|    \\/     M anipulation  |                                                 |
\*---------------------------------------------------------------------------*/
FoamFile
{
    version     2.0;
    format      ascii;
    arch        "LSB;label=32;scalar=64";
    class       volScalarField;
    location    "0.2";
    object      omega;
}
// * * * * * * * * * * * * * * * * * * * * * * * * * * * * * * * * * * * * * //

dimensions      [0 0 -1 0 0 0 0];

internalField   nonuniform List<scalar> 
1875
(
293.48
184.657
128.807
97.8734
80.5732
71.3889
66.753
64.4873
63.3938
62.8627
62.5973
62.457
62.3755
62.3211
62.2786
62.24
62.2002
62.1558
62.1036
62.0405
61.9637
61.8706
61.7608
61.6371
61.5079
61.3871
61.2911
61.2336
61.219
61.2384
61.2766
61.3217
61.3733
61.4383
61.5194
61.6148
61.7171
61.8182
61.9116
61.9934
62.0619
62.1174
62.161
62.1944
62.2195
62.2381
62.2516
62.2614
62.2682
62.2731
62.2764
62.2786
62.2802
62.2812
62.2818
62.2822
62.2825
62.2826
62.2826
62.2826
62.2826
62.2826
62.2826
62.2825
62.2825
62.2824
62.2824
62.2824
62.2824
62.2824
62.2823
62.282
62.2807
62.2755
62.2605
293.233
189.755
135.627
104.099
85.1263
73.8166
67.3111
63.7429
61.8688
60.9164
60.4414
60.2045
60.0831
60.0165
59.9752
59.9449
59.9183
59.8914
59.8612
59.8258
59.7835
59.7338
59.6788
59.6269
59.5958
59.613
59.708
59.8969
60.1611
60.4333
60.6164
60.6321
60.4881
60.2746
60.0709
59.9178
59.8258
59.7857
59.7814
59.7973
59.8216
59.8475
59.8711
59.8911
59.9071
59.9196
59.9291
59.9363
59.9418
59.9459
59.9489
59.9511
59.9528
59.954
59.955
59.9556
59.9561
59.9565
59.9568
59.9569
59.9571
59.9572
59.9573
59.9573
59.9573
59.9574
59.9574
59.9574
59.9574
59.9574
59.9574
59.9571
59.9552
59.9437
59.8775
293.17
190.07
137.206
106.365
87.2726
75.3277
68.0039
63.6775
61.2297
59.899
59.2006
58.8442
58.6657
58.5765
58.5311
58.5067
58.4919
58.4814
58.4722
58.4635
58.4564
58.4576
58.4864
58.5852
58.8319
59.3401
60.2333
61.5889
63.3348
65.1432
66.4176
66.5215
65.4259
63.8214
62.2503
60.9556
60.0156
59.3931
59.0101
58.7874
58.6631
58.595
58.5573
58.5355
58.5221
58.5132
58.5067
58.5018
58.498
58.4951
58.4928
58.4911
58.4897
58.4887
58.4879
58.4873
58.4868
58.4864
58.4862
58.486
58.4858
58.4857
58.4856
58.4855
58.4854
58.4854
58.4854
58.4853
58.4853
58.4853
58.4853
58.485
58.4832
58.4725
58.4132
293.096
189.403
136.698
106.269
87.4842
75.6508
68.2689
63.7905
61.1712
59.6975
58.8983
58.479
58.2651
58.1583
58.1059
58.0804
58.0682
58.0629
58.062
58.0674
58.0904
58.1669
58.385
58.9283
60.1156
62.417
66.3981
72.599
81.1276
90.9415
99.0985
100.181
93.3817
84.2836
76.1392
69.7329
65.2385
62.3021
60.4973
59.4408
58.845
58.5163
58.3355
58.2341
58.1749
58.1381
58.1138
58.0968
58.0844
58.0752
58.0682
58.0628
58.0588
58.0557
58.0533
58.0515
58.0501
58.0491
58.0483
58.0477
58.0473
58.0469
58.0467
58.0465
58.0463
58.0462
58.0461
58.046
58.046
58.0459
58.0459
58.0456
58.044
58.0341
57.9781
293.054
188.94
135.96
105.564
86.9598
75.3196
68.0842
63.6926
61.1117
59.647
58.8435
58.4163
58.1953
58.0837
58.0287
58.0025
57.9911
57.9884
57.9952
58.0256
58.1292
58.4443
59.292
61.3027
65.5503
73.7113
88.2281
112.742
151.376
204.042
261.09
272.309
224.43
170.825
131.042
102.551
84.4335
73.1761
66.4567
62.5988
60.462
59.3128
58.7067
58.3889
58.2202
58.1277
58.0742
58.0412
58.0195
58.0044
57.9934
57.9853
57.9792
57.9746
57.9711
57.9685
57.9665
57.9649
57.9638
57.9629
57.9622
57.9617
57.9613
57.9611
57.9608
57.9607
57.9605
57.9604
57.9604
57.9603
57.9602
57.96
57.9584
57.9487
57.8937
293.032
188.692
135.463
104.968
86.4059
74.8827
67.7809
63.5017
60.9993
59.5829
58.8065
58.3936
58.1799
58.0723
58.0197
57.9956
57.9871
57.9912
58.0204
58.1291
58.4866
59.5241
62.1643
68.1226
80.4049
104.744
153.352
253.518
471.437
853.072
1445.62
1584.47
1049.62
601.863
363.563
216.915
144.646
105.405
83.6322
71.6008
65.0773
61.6272
59.8448
58.9399
58.4838
58.2524
58.1321
58.0668
58.0289
58.0055
57.99
57.9791
57.9713
57.9655
57.9612
57.9579
57.9554
57.9535
57.9521
57.951
57.9502
57.9496
57.9491
57.9487
57.9485
57.9483
57.9481
57.948
57.9479
57.9478
57.9477
57.9475
57.9459
57.9363
57.8816
293.022
188.567
135.18
104.589
86.015
74.5439
67.523
63.3245
60.887
59.516
58.7684
58.3726
58.169
58.0673
58.0188
57.9982
57.9953
58.0162
58.1071
58.4332
59.4565
62.2344
68.8449
83.1877
113.532
182.824
378.721
995.533
3300.5
9367.83
22724.9
22495.5
9219.56
3280.86
1502.2
638.394
327.765
191.396
126.327
93.2354
75.9966
67.0565
62.4952
60.211
59.0847
58.5338
58.2636
58.1285
58.0585
58.02
57.9973
57.9829
57.9732
57.9664
57.9614
57.9577
57.9549
57.9528
57.9512
57.95
57.9491
57.9484
57.9479
57.9475
57.9472
57.947
57.9468
57.9466
57.9465
57.9465
57.9464
57.9461
57.9445
57.935
57.8804
293.017
188.503
135.023
104.362
85.7662
74.316
67.34
63.1918
60.7982
59.46
58.7346
58.353
58.1582
58.0621
58.0176
58.0014
58.0088
58.068
58.3064
59.1266
61.5301
67.5724
81.2541
111.381
183.711
410.473
1887.21
12183.2
500
500
500
500
500
500
12020.8
1835.12
704.04
354.671
204.44
132.928
96.3603
77.3614
67.5962
62.6772
60.251
59.0747
58.5103
58.2397
58.1081
58.0421
58.0072
57.9874
57.9753
57.9674
57.9619
57.9579
57.955
57.9529
57.9512
57.95
57.9491
57.9484
57.9478
57.9474
57.9471
57.9469
57.9467
57.9466
57.9465
57.9464
57.9463
57.946
57.9445
57.9349
57.8803
293.014
188.468
134.933
104.225
85.6096
74.1669
67.2157
63.0982
60.7329
59.4169
58.7072
58.336
58.1479
58.0564
58.0155
58.0049
58.0311
58.1679
58.6949
60.4052
65.0556
76.0806
100.973
160.784
342.866
1523.28
17845.8
500
500
500
500
500
500
500
500
16982.1
1469.61
638.885
319.66
188.617
125.33
92.5353
75.3875
66.5645
62.1336
59.9612
58.9168
58.4213
58.187
58.0752
58.0204
57.9922
57.9767
57.9674
57.9615
57.9575
57.9546
57.9525
57.951
57.9498
57.9489
57.9483
57.9477
57.9474
57.9471
57.9469
57.9467
57.9466
57.9465
57.9464
57.9463
57.946
57.9445
57.935
57.8803
293.012
188.448
134.88
104.141
85.51
74.0693
67.1321
63.0333
60.686
59.3846
58.6856
58.3217
58.1385
58.0504
58.0129
58.01
58.0676
58.3334
59.3083
62.2702
69.8371
87.28
127.786
235.63
666.014
7074.67
500
500
500
500
500
500
500
500
500
500
6728.47
1993.11
706.591
320.836
178.308
116.392
86.8294
72.1575
64.848
61.2526
59.5157
58.6909
58.3041
58.1237
58.0389
57.9982
57.9777
57.9667
57.9603
57.9563
57.9536
57.9517
57.9503
57.9493
57.9485
57.948
57.9475
57.9472
57.947
57.9468
57.9466
57.9465
57.9464
57.9464
57.9463
57.946
57.9445
57.9349
57.8803
293.011
188.437
134.848
104.09
85.4481
74.0069
67.0772
62.9895
60.6534
59.3613
58.6693
58.3104
58.1306
58.045
58.0108
58.0183
58.1214
58.5641
60.0932
64.4403
75.1102
99.6862
158.037
318.59
1017.06
28120.6
500
500
500
500
500
500
500
500
500
500
25228.5
5226.56
1492.14
564.379
267.577
153.625
103.794
80.2492
68.7529
63.1187
60.3884
59.0876
58.4781
58.1964
58.0671
58.0075
57.9795
57.9658
57.9587
57.9546
57.9522
57.9506
57.9494
57.9486
57.948
57.9476
57.9472
57.947
57.9468
57.9466
57.9465
57.9464
57.9464
57.9463
57.9463
57.946
57.9444
57.9349
57.8803
293.011
188.43
134.831
104.062
85.4134
73.9715
67.0457
62.9644
60.6349
59.3485
58.6607
58.3047
58.1269
58.043
58.0119
58.0325
58.1932
58.8453
60.9497
66.5451
80.0064
111.106
186.45
446.692
2754.24
500
500
500
500
500
500
500
500
500
500
500
500
2663.62
866.08
425.709
245.506
156.842
110.329
85.3378
71.9423
64.9067
61.3174
59.542
58.6887
58.2887
58.1046
58.0209
57.983
57.9655
57.9572
57.953
57.9507
57.9494
57.9485
57.9479
57.9475
57.9471
57.9469
57.9467
57.9466
57.9465
57.9464
57.9464
57.9463
57.9463
57.9462
57.946
57.9444
57.9349
57.8803
293.011
188.428
134.825
104.052
85.4028
73.9625
67.0406
62.9638
60.6383
59.3546
58.6684
58.313
58.1353
58.0515
58.0221
58.0528
58.2596
59.0701
61.5512
67.8409
83.3821
120.811
202.95
490.692
3324.76
500
500
500
500
500
500
500
500
500
500
500
500
3204.97
906.318
437.347
255.578
165.106
116.337
89.2994
74.3446
66.2617
62.0353
59.9021
58.8604
58.3664
58.1377
58.0337
57.987
57.966
57.9565
57.952
57.9498
57.9486
57.9478
57.9474
57.9471
57.9468
57.9467
57.9466
57.9465
57.9464
57.9463
57.9463
57.9463
57.9462
57.9462
57.9459
57.9444
57.9349
57.8803
293.011
188.43
134.831
104.062
85.4175
73.982
67.0646
62.9911
60.6672
59.3834
58.6957
58.3382
58.1583
58.0725
58.0407
58.0649
58.2428
58.9445
61.1344
66.8263
80.6621
113.041
188.511
437.993
2754.24
500
500
500
500
500
500
500
500
500
500
500
500
2663.62
861.823
415.496
240.905
155.807
110.676
86.0336
72.585
65.3786
61.6205
59.7182
58.7828
58.3348
58.125
58.0285
57.9846
57.9648
57.9557
57.9514
57.9493
57.9482
57.9476
57.9472
57.9469
57.9467
57.9466
57.9465
57.9464
57.9464
57.9463
57.9463
57.9463
57.9462
57.9462
57.9459
57.9444
57.9349
57.8803
293.011
188.436
134.848
104.092
85.4565
74.0275
67.1131
63.0398
60.7136
59.4261
58.734
58.372
58.1881
58.0988
58.0627
58.0733
58.1932
58.6851
60.3071
64.7818
75.7339
101.058
160.298
314.766
1014.74
28120.6
500
500
500
500
500
500
500
500
500
500
25228.5
5255.34
1484.08
557.733
266.624
155.096
105.695
81.8453
69.8849
63.8405
60.8113
59.3168
58.5927
58.2481
58.0867
58.012
57.9776
57.9618
57.9545
57.9509
57.9491
57.9481
57.9475
57.9472
57.9469
57.9467
57.9466
57.9465
57.9464
57.9464
57.9463
57.9463
57.9462
57.9462
57.9462
57.9459
57.9444
57.9349
57.8803
293.012
188.448
134.88
104.144
85.5229
74.1
67.1848
63.1062
60.7725
59.4768
58.7769
58.408
58.2184
58.1245
58.0834
58.0818
58.1519
58.4572
59.519
62.6252
70.4486
88.4225
130.212
244.655
664.401
7074.67
500
500
500
500
500
500
500
500
500
500
6728.47
1996.31
748.54
346.541
191.876
123.748
90.9969
74.5649
66.2235
62.0125
59.915
58.887
58.3913
58.1558
58.0452
57.9937
57.9697
57.9584
57.953
57.9503
57.9488
57.948
57.9475
57.9471
57.9469
57.9467
57.9466
57.9465
57.9464
57.9463
57.9463
57.9463
57.9462
57.9462
57.9462
57.9459
57.9444
57.9349
57.8803
293.014
188.468
134.933
104.229
85.6272
74.208
67.2855
63.1935
60.8448
59.5348
58.8226
58.4439
58.2466
58.1467
58.1004
58.089
58.1237
58.29
58.8895
60.7366
65.613
77.0567
102.801
164.368
340.198
1523.28
17845.8
500
500
500
500
500
500
500
500
16982.1
1469.61
639.293
338.08
202.008
133.636
97.6409
78.4989
68.4061
63.1745
60.5157
59.1908
58.5424
58.23
58.0814
58.0114
57.9784
57.9628
57.9553
57.9515
57.9496
57.9485
57.9478
57.9473
57.947
57.9468
57.9466
57.9465
57.9464
57.9464
57.9463
57.9463
57.9462
57.9462
57.9462
57.9462
57.9459
57.9444
57.9349
57.8803
293.017
188.503
135.024
104.368
85.789
74.3682
67.4271
63.3092
60.9341
59.6011
58.8707
58.4783
58.2709
58.1638
58.1117
58.0927
58.105
58.184
58.4739
59.4016
61.9895
68.3293
82.4578
113.152
181.834
405.115
1887.21
12183.2
500
500
500
500
500
500
12020.8
1835.12
704.443
355.669
210.106
138.785
101.119
80.7556
69.7901
63.9803
60.965
59.4327
58.669
58.2948
58.114
58.0276
57.9864
57.9668
57.9573
57.9526
57.9501
57.9487
57.9479
57.9474
57.9471
57.9468
57.9466
57.9465
57.9464
57.9463
57.9463
57.9462
57.9462
57.9462
57.9461
57.9461
57.9461
57.9458
57.9443
57.9348
57.8802
293.022
188.567
135.181
104.596
86.0433
74.6076
67.6276
63.4629
61.0443
59.6761
58.9198
58.5093
58.2896
58.1741
58.1158
58.0907
58.0898
58.1228
58.2453
58.6398
59.7859
62.7415
69.5604
84.1768
114.709
180.041
371.891
993.409
3300.5
9367.83
22724.9
22495.5
9219.56
3280.86
1501.36
638.588
330.447
197.852
132.956
98.6415
79.8822
69.5915
64.0151
61.0505
59.5072
58.7201
58.3259
58.1316
58.0369
57.9911
57.969
57.9582
57.9529
57.9501
57.9486
57.9477
57.9471
57.9468
57.9465
57.9463
57.9462
57.9461
57.946
57.946
57.9459
57.9459
57.9459
57.9458
57.9458
57.9458
57.9458
57.9455
57.944
57.9345
57.8799
293.032
188.692
135.464
104.977
86.4401
74.9582
67.9024
63.6589
61.1734
59.7553
58.965
58.5328
58.2996
58.1756
58.1115
58.0815
58.073
58.0844
58.1319
58.2784
58.7045
59.8426
62.5873
68.5958
80.7886
104.674
152.161
247.086
457.64
850.274
1445.2
1584.23
1050.05
602.598
364.831
229.752
155.276
113.457
89.4273
75.5455
67.5988
63.1311
60.6746
59.3549
58.6616
58.3048
58.1243
58.0343
57.99
57.9682
57.9574
57.9521
57.9493
57.9478
57.947
57.9465
57.9462
57.946
57.9458
57.9457
57.9456
57.9456
57.9455
57.9455
57.9455
57.9454
57.9454
57.9454
57.9454
57.9454
57.9453
57.9451
57.9436
57.934
57.8794
293.053
188.94
135.961
105.575
87.0011
75.4085
68.2221
63.864
61.2937
59.8196
58.9954
58.5437
58.2998
58.1699
58.1024
58.0694
58.0567
58.0585
58.0765
58.1276
58.2663
58.6331
59.5363
61.5629
65.7058
73.5381
87.3749
110.623
147.326
198.181
253.331
268.366
229.864
179.638
139.257
110.094
90.3574
77.5392
69.4753
64.5524
61.6362
59.9589
59.021
58.5101
58.2382
58.0965
58.024
57.9873
57.969
57.9599
57.9554
57.9531
57.9519
57.9513
57.951
57.9508
57.9506
57.9506
57.9505
57.9505
57.9504
57.9504
57.9504
57.9504
57.9504
57.9504
57.9504
57.9504
57.9504
57.9503
57.9503
57.9501
57.9485
57.9389
57.884
293.096
189.402
136.698
106.282
87.5341
75.7533
68.4183
63.9637
61.3415
59.8457
59.0162
58.5666
58.3272
58.2015
58.1366
58.1046
58.0908
58.0883
58.0946
58.1123
58.1538
58.2559
58.5032
59.0625
60.2173
62.3867
66.0783
71.7915
79.6596
88.8335
96.8842
99.4315
95.0684
87.3004
79.3494
72.6403
67.561
63.9904
61.6188
60.1159
59.2018
58.6657
58.3612
58.1933
58.1032
58.0561
58.0321
58.0202
58.0144
58.0118
58.0106
58.0102
58.0102
58.0102
58.0103
58.0104
58.0105
58.0105
58.0106
58.0106
58.0107
58.0107
58.0107
58.0107
58.0107
58.0107
58.0108
58.0108
58.0108
58.0108
58.0107
58.0105
58.0088
57.9989
57.9431
293.17
190.067
137.204
106.379
87.3266
75.4302
68.1383
63.813
61.3397
59.9703
59.2323
58.8423
58.6387
58.5326
58.477
58.4474
58.4316
58.4232
58.4189
58.4177
58.4211
58.4357
58.4795
58.5905
58.8353
59.3106
60.1222
61.341
62.9224
64.6214
65.9856
66.4951
65.9364
64.6627
63.1578
61.7581
60.6242
59.7896
59.2193
58.853
58.6304
58.5022
58.4325
58.3971
58.3808
58.3748
58.3737
58.3748
58.3767
58.3786
58.3805
58.382
58.3833
58.3843
58.385
58.3856
58.3861
58.3864
58.3867
58.3868
58.387
58.3871
58.3872
58.3873
58.3873
58.3873
58.3874
58.3874
58.3874
58.3874
58.3874
58.3871
58.3852
58.3742
58.3152
293.233
189.752
135.622
104.106
85.16
73.8694
67.3548
63.7501
61.8266
60.8262
60.3124
60.0477
59.9081
59.8307
59.7838
59.7513
59.7251
59.7003
59.6739
59.6436
59.6078
59.5658
59.5193
59.4752
59.4482
59.4613
59.5401
59.7011
59.936
60.1998
60.4207
60.5238
60.4753
60.3133
60.1064
59.9116
59.7604
59.6609
59.6075
59.5882
59.5909
59.6057
59.6257
59.6464
59.6655
59.6819
59.6954
59.7064
59.715
59.7217
59.7268
59.7308
59.7337
59.736
59.7377
59.739
59.7399
59.7407
59.7412
59.7416
59.7419
59.7421
59.7423
59.7424
59.7425
59.7426
59.7426
59.7427
59.7427
59.7427
59.7427
59.7422
59.7395
59.7254
59.6573
293.481
184.663
128.825
97.8988
80.5788
71.3442
66.6417
64.3114
63.1658
62.5977
62.3086
62.1541
62.0649
62.007
61.9637
61.9259
61.8882
61.847
61.799
61.741
61.6703
61.5843
61.4821
61.3661
61.2434
61.1264
61.0305
60.97
60.9521
60.9727
61.0194
61.0772
61.1369
61.1985
61.2651
61.3397
61.4206
61.5031
61.5829
61.656
61.7201
61.774
61.8181
61.8529
61.8799
61.9004
61.9157
61.927
61.9353
61.9412
61.9454
61.9484
61.9505
61.9519
61.9529
61.9536
61.954
61.9543
61.9545
61.9546
61.9546
61.9547
61.9547
61.9547
61.9546
61.9546
61.9546
61.9546
61.9546
61.9545
61.9544
61.9535
61.949
61.9277
61.8397
)
;

boundaryField
{
    ibCylinder
    {
        type            immersedBoundaryOmegaWallFunction;
        patchType       immersedBoundary;
        blending        stepwise;
        setDeadValue    true;
        deadValue       500;
        value           nonuniform List<scalar> 0();
    }
    in
    {
        type            fixedValue;
        value           uniform 500;
    }
    out
    {
        type            inletOutlet;
        inletValue      uniform 500;
        value           nonuniform List<scalar> 
25
(
62.2605
59.8775
58.4132
57.9781
57.8937
57.8816
57.8804
57.8803
57.8803
57.8803
57.8803
57.8803
57.8803
57.8803
57.8803
57.8803
57.8803
57.8802
57.8799
57.8794
57.884
57.9431
58.3152
59.6573
61.8397
)
;
    }
    top
    {
        type            zeroGradient;
    }
    bottom
    {
        type            zeroGradient;
    }
    frontAndBack
    {
        type            empty;
    }
}


// ************************************************************************* //
