/*--------------------------------*- C++ -*----------------------------------*\
| =========                 |                                                 |
| \\      /  F ield         | OpenFOAM: The Open Source CFD Toolbox           |
|  \\    /   O peration     | Version:  2206                                  |
|   \\  /    A nd           | Website:  www.openfoam.com                      |
|    \\/     M anipulation  |                                                 |
\*---------------------------------------------------------------------------*/
FoamFile
{
    version     2.0;
    format      ascii;
    arch        "LSB;label=32;scalar=64";
    class       volScalarField;
    location    "0.2";
    object      p;
}
// * * * * * * * * * * * * * * * * * * * * * * * * * * * * * * * * * * * * * //

dimensions      [0 2 -2 0 0 0 0];

internalField   nonuniform List<scalar> 
1875
(
2.75541
2.36725
2.11653
2.01917
1.96355
1.92304
1.89545
1.87717
1.86348
1.85138
1.83941
1.82687
1.81345
1.79902
1.78346
1.76663
1.74836
1.72836
1.70628
1.68169
1.65408
1.62284
1.58735
1.54688
1.50085
1.44888
1.39084
1.3269
1.2577
1.18426
1.10808
1.03105
0.95531
0.882891
0.815362
0.753655
0.698146
0.648806
0.605285
0.567014
0.533301
0.50344
0.476835
0.452911
0.431176
0.41122
0.392696
0.375314
0.358844
0.343102
0.327937
0.313224
0.29887
0.284795
0.27094
0.257256
0.243706
0.23026
0.216895
0.203592
0.190338
0.177122
0.163935
0.150771
0.137624
0.12449
0.111366
0.0982505
0.0851411
0.0720359
0.0589344
0.0458353
0.0327383
0.0196425
0.00654751
2.38106
2.22593
2.09821
2.02136
1.97057
1.93202
1.90321
1.88317
1.86792
1.85462
1.8418
1.82871
1.81499
1.80045
1.78493
1.76824
1.7502
1.73053
1.70889
1.68485
1.65785
1.62724
1.5923
1.55235
1.50671
1.45489
1.3966
1.33195
1.26155
1.18649
1.10841
1.02942
0.951853
0.878034
0.809645
0.747571
0.692146
0.643232
0.600324
0.562724
0.529691
0.500517
0.474502
0.451066
0.429727
0.410086
0.39181
0.374623
0.358307
0.342688
0.327618
0.312981
0.298683
0.284652
0.270831
0.257173
0.243643
0.230211
0.216858
0.203564
0.190317
0.177106
0.163923
0.150761
0.137616
0.124484
0.111362
0.0982473
0.0851385
0.0720341
0.058933
0.0458343
0.0327375
0.019642
0.00654731
2.20485
2.15483
2.08512
2.02734
1.98143
1.94357
1.91477
1.8931
1.87553
1.86017
1.84595
1.83199
1.81777
1.803
1.78751
1.77106
1.75343
1.73434
1.71345
1.69033
1.66443
1.63504
1.60138
1.56262
1.51794
1.46661
1.40812
1.34235
1.26988
1.19192
1.11003
1.02672
0.945175
0.868394
0.798193
0.735384
0.680121
0.632019
0.590343
0.55414
0.522497
0.494589
0.469695
0.447213
0.426667
0.407673
0.389919
0.373148
0.357161
0.341799
0.32693
0.312449
0.298272
0.284336
0.270589
0.256988
0.243502
0.230103
0.216775
0.203501
0.190269
0.177069
0.163895
0.15074
0.1376
0.124472
0.111352
0.0982401
0.085133
0.07203
0.05893
0.0458322
0.0327362
0.0196412
0.00654709
2.12625
2.10553
2.06141
2.01845
1.98138
1.94967
1.92352
1.90131
1.88266
1.86627
1.85116
1.83648
1.82175
1.80678
1.79142
1.77536
1.75834
1.74012
1.72036
1.69863
1.67437
1.64682
1.61515
1.57831
1.53528
1.48503
1.42649
1.35933
1.28408
1.20184
1.11347
1.02257
0.934347
0.852776
0.779724
0.71582
0.660977
0.614324
0.574637
0.540645
0.511206
0.485282
0.462113
0.441104
0.421797
0.403828
0.386901
0.37079
0.355327
0.340377
0.32583
0.311599
0.297617
0.283831
0.2702
0.256689
0.243271
0.229927
0.21664
0.203398
0.19019
0.177009
0.163849
0.150705
0.137573
0.124451
0.111337
0.0982281
0.085124
0.0720232
0.058925
0.0458287
0.0327339
0.0196399
0.00654673
2.07433
2.06376
2.03689
2.00597
1.97736
1.95079
1.92729
1.90644
1.888
1.87151
1.85596
1.84082
1.82589
1.81109
1.79618
1.78078
1.76463
1.74757
1.72936
1.70952
1.68747
1.66253
1.63374
1.59978
1.55942
1.51112
1.45292
1.38418
1.30545
1.21768
1.11919
1.01659
0.917723
0.829408
0.75272
0.687402
0.633648
0.589671
0.553228
0.522458
0.496129
0.47299
0.452179
0.433133
0.415439
0.398779
0.382914
0.367661
0.352885
0.33848
0.324361
0.310463
0.296741
0.283156
0.269681
0.25629
0.242964
0.229691
0.216459
0.203259
0.190083
0.176927
0.163786
0.150657
0.137536
0.124423
0.111315
0.0982118
0.0851116
0.0720139
0.0589182
0.0458239
0.0327307
0.0196381
0.00654617
2.03846
2.03252
2.01552
1.99343
1.97103
1.94918
1.92844
1.9092
1.89156
1.87529
1.85965
1.84456
1.82999
1.81566
1.80129
1.78669
1.77171
1.75622
1.73999
1.72256
1.70347
1.68206
1.65734
1.62744
1.5913
1.54633
1.48988
1.41933
1.33625
1.2387
1.12344
1.00567
0.893774
0.796917
0.717699
0.650112
0.597569
0.557433
0.525825
0.499907
0.47762
0.458157
0.440379
0.42377
0.408028
0.392928
0.378308
0.364048
0.350057
0.336268
0.322636
0.309124
0.295704
0.282356
0.269063
0.255813
0.242598
0.229409
0.216242
0.203092
0.189955
0.176829
0.16371
0.150599
0.137492
0.124389
0.111289
0.0981918
0.0850965
0.0720026
0.0589098
0.0458179
0.0327267
0.0196359
0.00654543
2.01324
2.00949
1.998
1.9817
1.96388
1.94567
1.92758
1.91017
1.89361
1.87792
1.86277
1.84813
1.834
1.82016
1.80646
1.79286
1.77931
1.76569
1.75173
1.73723
1.72187
1.70505
1.68575
1.66228
1.63249
1.59256
1.5402
1.4719
1.40286
1.29376
1.13902
0.982649
0.841571
0.719201
0.65286
0.594361
0.550749
0.517443
0.492721
0.473268
0.456383
0.441295
0.427208
0.413433
0.399915
0.386589
0.373365
0.360197
0.347055
0.333926
0.320811
0.307704
0.2946
0.281498
0.268398
0.255299
0.2422
0.229103
0.216006
0.20291
0.189815
0.176721
0.163628
0.150535
0.137443
0.124351
0.11126
0.0981698
0.0850797
0.0719899
0.0589005
0.0458113
0.0327223
0.0196333
0.00654457
1.995
1.99233
1.98401
1.97154
1.9571
1.9417
1.92587
1.91012
1.89471
1.87977
1.86527
1.85119
1.83758
1.82439
1.81158
1.79913
1.78707
1.77539
1.76399
1.75286
1.74187
1.73059
1.71817
1.70423
1.68436
1.65614
1.6058
1.56678
0
0
0
0
0
0
0.580164
0.515209
0.484584
0.467526
0.454318
0.443424
0.433247
0.423305
0.413392
0.402746
0.391599
0.380122
0.368344
0.3563
0.344034
0.331587
0.318999
0.306299
0.29351
0.280651
0.26774
0.254789
0.241805
0.228797
0.21577
0.202727
0.189674
0.176612
0.163544
0.15047
0.137393
0.124313
0.111231
0.0981473
0.0850626
0.071977
0.0588909
0.0458044
0.0327177
0.0196307
0.00654366
1.9817
1.97965
1.9732
1.96326
1.95123
1.93795
1.92392
1.90957
1.89521
1.88105
1.86719
1.85372
1.84072
1.82823
1.81631
1.80503
1.79448
1.78478
1.77605
1.76846
1.76225
1.7573
1.75321
1.75007
1.74132
1.73145
1.69907
0
0
0
0
0
0
0
0
0.438813
0.411307
0.410387
0.412631
0.412841
0.409847
0.405488
0.399714
0.392381
0.383646
0.373967
0.363586
0.352624
0.341192
0.32939
0.317299
0.304984
0.292492
0.279865
0.267132
0.254318
0.24144
0.228514
0.21555
0.202558
0.189543
0.17651
0.163465
0.150409
0.137346
0.124277
0.111203
0.098126
0.0850463
0.0719648
0.0588818
0.0457979
0.0327133
0.0196282
0.00654278
1.9722
1.97051
1.96522
1.95691
1.94653
1.93479
1.92211
1.90886
1.89538
1.88191
1.86864
1.85572
1.8433
1.83148
1.82039
1.81018
1.80104
1.79321
1.78701
1.7828
1.7814
1.78288
1.78658
1.79023
1.78311
1.80848
0
0
0
0
0
0
0
0
0
0
0.346442
0.353223
0.372994
0.384078
0.388299
0.389251
0.387455
0.383109
0.376589
0.368561
0.359431
0.349426
0.338728
0.32749
0.315832
0.303849
0.291615
0.279186
0.266607
0.253912
0.241126
0.228271
0.215362
0.202412
0.18943
0.176423
0.163397
0.150357
0.137306
0.124246
0.111179
0.0981074
0.0850321
0.071954
0.0588738
0.0457922
0.0327095
0.019626
0.006542
1.96581
1.96434
1.95974
1.95243
1.94315
1.93242
1.92065
1.90822
1.89539
1.88245
1.86964
1.85717
1.84521
1.83394
1.82353
1.81422
1.80628
1.80006
1.79608
1.79522
1.79762
1.80426
1.81578
1.82311
1.78922
1.9238
0
0
0
0
0
0
0
0
0
0
0.281982
0.303042
0.338945
0.360133
0.370778
0.37618
0.377763
0.375739
0.371012
0.364322
0.356191
0.346942
0.336821
0.326021
0.3147
0.302975
0.29094
0.278664
0.266203
0.253599
0.240885
0.228084
0.215218
0.2023
0.189343
0.176356
0.163345
0.150316
0.137274
0.124221
0.11116
0.0980928
0.0850208
0.0719455
0.0588675
0.0457877
0.0327064
0.0196242
0.0065414
1.96212
1.96076
1.95653
1.94977
1.94111
1.93096
1.91973
1.90777
1.89534
1.88274
1.87024
1.85805
1.84639
1.83547
1.82552
1.81681
1.80971
1.80468
1.80247
1.80381
1.81011
1.82349
1.83893
1.85043
1.80899
0
0
0
0
0
0
0
0
0
0
0
0
0.274355
0.316145
0.345272
0.359818
0.367745
0.371477
0.371019
0.367428
0.361606
0.354124
0.345364
0.335612
0.325092
0.313984
0.302423
0.290513
0.278334
0.265948
0.253402
0.240732
0.227966
0.215126
0.202228
0.189287
0.176312
0.163311
0.15029
0.137254
0.124205
0.111148
0.0980832
0.0850134
0.0719398
0.0588633
0.0457846
0.0327044
0.019623
0.00654099
1.9609
1.95959
1.95547
1.94888
1.94042
1.93046
1.91941
1.90761
1.89532
1.88283
1.87043
1.85834
1.84679
1.83599
1.82618
1.81768
1.8109
1.80628
1.80454
1.80661
1.81383
1.82812
1.84543
1.85597
1.82884
0
0
0
0
0
0
0
0
0
0
0
0
0.262219
0.307477
0.340186
0.356098
0.364725
0.369287
0.369407
0.366189
0.36067
0.353414
0.344822
0.335196
0.324773
0.313738
0.302232
0.290366
0.27822
0.26586
0.253333
0.240678
0.227924
0.215093
0.202203
0.189267
0.176296
0.163299
0.15028
0.137246
0.124199
0.111143
0.0980791
0.0850102
0.0719373
0.0588614
0.0457832
0.0327034
0.0196225
0.0065408
1.96209
1.96074
1.95651
1.94975
1.94109
1.93094
1.91971
1.90775
1.89533
1.88272
1.87022
1.85803
1.84638
1.83546
1.8255
1.8168
1.8097
1.80467
1.80246
1.80379
1.81007
1.82344
1.83899
1.85054
1.80978
0
0
0
0
0
0
0
0
0
0
0
0
0.274587
0.316234
0.345311
0.359829
0.367756
0.37147
0.371004
0.367418
0.3616
0.354118
0.345358
0.335606
0.325087
0.313979
0.302417
0.290508
0.278329
0.265943
0.253397
0.240727
0.227961
0.215121
0.202224
0.189283
0.176309
0.163308
0.150287
0.137251
0.124202
0.111145
0.0980809
0.0850115
0.0719382
0.058862
0.0457836
0.0327037
0.0196226
0.00654084
1.96575
1.96429
1.95969
1.95238
1.94311
1.93238
1.92061
1.90818
1.89535
1.88241
1.86961
1.85714
1.84518
1.83391
1.8235
1.8142
1.80626
1.80004
1.79606
1.79518
1.79755
1.80415
1.81558
1.82255
1.78839
1.9398
0
0
0
0
0
0
0
0
0
0
0.282292
0.303196
0.338993
0.360158
0.370781
0.376188
0.377757
0.375718
0.371
0.364312
0.35618
0.34693
0.336809
0.32601
0.314688
0.302964
0.290929
0.278654
0.266194
0.25359
0.240875
0.228075
0.215209
0.202291
0.189335
0.176348
0.163338
0.15031
0.137268
0.124215
0.111155
0.0980882
0.085017
0.0719422
0.0588649
0.0457857
0.0327051
0.0196234
0.00654107
1.97212
1.97044
1.96515
1.95683
1.94646
1.93472
1.92204
1.90881
1.89533
1.88186
1.86859
1.85568
1.84325
1.83143
1.82035
1.81014
1.801
1.79318
1.78698
1.78275
1.78132
1.78275
1.78636
1.78969
1.78268
1.81015
0
0
0
0
0
0
0
0
0
0
0.346373
0.353239
0.373015
0.384093
0.388289
0.389237
0.387439
0.383082
0.37657
0.368544
0.359413
0.349407
0.33871
0.327472
0.315815
0.303833
0.291599
0.279171
0.266593
0.253898
0.241113
0.228258
0.215349
0.2024
0.189418
0.176412
0.163387
0.150347
0.137296
0.124237
0.111171
0.0981007
0.0850263
0.0719492
0.05887
0.0457893
0.0327074
0.0196247
0.00654151
1.98161
1.97955
1.97311
1.96316
1.95114
1.93787
1.92384
1.9095
1.89514
1.88099
1.86713
1.85366
1.84066
1.82818
1.81626
1.80498
1.79444
1.78474
1.77601
1.76842
1.76219
1.75723
1.75315
1.74995
1.7414
1.73245
1.69747
0
0
0
0
0
0
0
0
0.438671
0.411149
0.410385
0.41264
0.412829
0.409839
0.405463
0.399683
0.392353
0.38362
0.373941
0.363561
0.352599
0.341168
0.329367
0.317277
0.304962
0.292471
0.279845
0.267113
0.254299
0.241422
0.228496
0.215533
0.202541
0.189527
0.176496
0.163451
0.150397
0.137334
0.124266
0.111193
0.0981173
0.0850388
0.0719585
0.0588768
0.0457941
0.0327106
0.0196265
0.00654216
1.99488
1.99221
1.98389
1.97143
1.95699
1.94159
1.92578
1.91003
1.89463
1.87969
1.86519
1.85112
1.83752
1.82433
1.81152
1.79908
1.78702
1.77535
1.76395
1.75282
1.74183
1.73056
1.71816
1.70427
1.68458
1.65674
1.60564
1.56673
0
0
0
0
0
0
0.580149
0.515115
0.484483
0.467503
0.454306
0.443398
0.43322
0.423276
0.413357
0.402714
0.391568
0.380091
0.368314
0.35627
0.344004
0.331559
0.318971
0.306272
0.293485
0.280627
0.267717
0.254766
0.241783
0.228776
0.215749
0.202708
0.189656
0.176595
0.163527
0.150455
0.137379
0.1243
0.111219
0.0981367
0.0850534
0.0719693
0.0588847
0.0457997
0.0327143
0.0196287
0.00654289
2.01311
2.00935
1.99786
1.98157
1.96376
1.94555
1.92747
1.91006
1.89351
1.87783
1.86269
1.84805
1.83392
1.82009
1.8064
1.7928
1.77926
1.76564
1.75169
1.73719
1.72184
1.70502
1.68574
1.6623
1.63259
1.59278
1.54028
1.47186
1.40287
1.29374
1.13899
0.982685
0.841559
0.719238
0.652843
0.594304
0.550683
0.517401
0.492707
0.473237
0.456353
0.441259
0.427174
0.413401
0.399879
0.386553
0.37333
0.360161
0.34702
0.333893
0.320779
0.307673
0.294571
0.28147
0.268371
0.255273
0.242175
0.229079
0.215983
0.202888
0.189794
0.176701
0.163608
0.150517
0.137426
0.124336
0.111246
0.0981574
0.085069
0.071981
0.0588932
0.0458057
0.0327183
0.0196309
0.00654365
2.03831
2.03237
2.01537
1.99328
1.97089
1.94905
1.92832
1.90909
1.89145
1.87519
1.85956
1.84447
1.82991
1.81558
1.80121
1.78662
1.77165
1.75617
1.73994
1.72252
1.70343
1.68203
1.65732
1.62746
1.59136
1.54642
1.48995
1.41933
1.33628
1.23871
1.12344
1.00568
0.893777
0.796911
0.717685
0.650064
0.59753
0.557395
0.525804
0.49988
0.477589
0.458122
0.440344
0.423733
0.407988
0.392888
0.378267
0.364008
0.350018
0.33623
0.3226
0.309089
0.295671
0.282324
0.269033
0.255784
0.24257
0.229382
0.216216
0.203067
0.189931
0.176806
0.163689
0.150578
0.137473
0.124372
0.111274
0.0981781
0.0850844
0.0719924
0.0589015
0.0458115
0.0327221
0.0196331
0.00654438
2.07417
2.0636
2.03673
2.00581
1.97721
1.95064
1.92716
1.90632
1.88789
1.8714
1.85585
1.84073
1.8258
1.81101
1.7961
1.7807
1.76456
1.74752
1.72931
1.70947
1.68743
1.66249
1.63372
1.59978
1.55945
1.51117
1.45296
1.38419
1.30546
1.21769
1.1192
1.0166
0.917729
0.829404
0.752701
0.68737
0.633607
0.589633
0.553202
0.522429
0.496094
0.472954
0.452142
0.433093
0.415397
0.398736
0.38287
0.367617
0.352842
0.338438
0.324321
0.310425
0.296705
0.283122
0.269648
0.256258
0.242934
0.229662
0.216431
0.203232
0.190057
0.176902
0.163762
0.150634
0.137516
0.124404
0.111298
0.0981966
0.0850983
0.0720027
0.058909
0.0458168
0.0327256
0.0196351
0.00654501
2.12608
2.10537
2.06124
2.01828
1.98122
1.94952
1.92338
1.90118
1.88253
1.86615
1.85105
1.83638
1.82165
1.80668
1.79133
1.77528
1.75827
1.74005
1.7203
1.69858
1.67432
1.64678
1.61512
1.5783
1.53529
1.48505
1.42652
1.35934
1.2841
1.20185
1.11348
1.02258
0.934349
0.852773
0.779708
0.715796
0.660946
0.614293
0.57461
0.540614
0.511171
0.485246
0.462075
0.441063
0.421754
0.403783
0.386855
0.370743
0.355281
0.340332
0.325787
0.311558
0.297578
0.283795
0.270165
0.256655
0.243238
0.229896
0.21661
0.203369
0.190162
0.176983
0.163823
0.150681
0.137551
0.124431
0.111318
0.0982117
0.0851096
0.072011
0.058915
0.0458209
0.0327282
0.0196365
0.00654546
2.20467
2.15466
2.08495
2.02717
1.98127
1.94341
1.91462
1.89296
1.8754
1.86005
1.84583
1.83189
1.81767
1.80291
1.78742
1.77098
1.75335
1.73427
1.71338
1.69027
1.66437
1.63498
1.60134
1.5626
1.51793
1.46662
1.40813
1.34236
1.26989
1.19193
1.11003
1.02672
0.945177
0.868391
0.798181
0.735366
0.680098
0.631993
0.590315
0.55411
0.522464
0.494554
0.469658
0.447173
0.426624
0.407628
0.389871
0.373099
0.357114
0.341752
0.326885
0.312406
0.298232
0.284298
0.270552
0.256953
0.243467
0.230071
0.216744
0.203471
0.19024
0.177042
0.163869
0.150715
0.137577
0.12445
0.111333
0.0982228
0.0851178
0.072017
0.0589192
0.0458238
0.0327301
0.0196375
0.00654573
2.38088
2.22575
2.09804
2.02119
1.9704
1.93186
1.90306
1.88302
1.86778
1.85449
1.84168
1.8286
1.81489
1.80035
1.78484
1.76815
1.75011
1.73045
1.70882
1.68478
1.65779
1.62719
1.59226
1.55232
1.50669
1.45489
1.39661
1.33196
1.26156
1.1865
1.10842
1.02943
0.951854
0.87803
0.809635
0.747555
0.692126
0.643208
0.600298
0.562696
0.529661
0.500483
0.474466
0.451027
0.429684
0.410041
0.391763
0.374574
0.358258
0.34264
0.327572
0.312937
0.298641
0.284613
0.270793
0.257137
0.243608
0.230178
0.216826
0.203534
0.190288
0.177078
0.163896
0.150736
0.137593
0.124462
0.111342
0.0982293
0.0851227
0.0720205
0.0589218
0.0458256
0.0327312
0.0196381
0.00654587
2.75523
2.36708
2.11635
2.019
1.96339
1.92288
1.8953
1.87703
1.86335
1.85126
1.83929
1.82676
1.81335
1.79892
1.78336
1.76654
1.74828
1.72828
1.70621
1.68163
1.65402
1.62279
1.58731
1.54685
1.50083
1.44888
1.39084
1.32691
1.2577
1.18427
1.10809
1.03105
0.95531
0.882886
0.815351
0.753639
0.698127
0.648784
0.605261
0.566988
0.533273
0.50341
0.476801
0.452874
0.431135
0.411175
0.392649
0.375266
0.358796
0.343054
0.32789
0.31318
0.298827
0.284755
0.270901
0.257219
0.243671
0.230226
0.216862
0.203561
0.190309
0.177094
0.163908
0.150745
0.137599
0.124467
0.111346
0.0982323
0.0851249
0.0720221
0.0589229
0.0458264
0.0327317
0.0196384
0.00654599
)
;

boundaryField
{
    ibCylinder
    {
        type            zeroGradientIb;
        patchType       immersedBoundary;
        setDeadValue    true;
        deadValue       0;
        value           nonuniform List<scalar> 0();
    }
    in
    {
        type            zeroGradient;
    }
    out
    {
        type            fixedValue;
        value           uniform 0;
    }
    top
    {
        type            zeroGradient;
    }
    bottom
    {
        type            zeroGradient;
    }
    frontAndBack
    {
        type            empty;
    }
}


// ************************************************************************* //
