/*--------------------------------*- C++ -*----------------------------------*\
| =========                 |                                                 |
| \\      /  F ield         | OpenFOAM: The Open Source CFD Toolbox           |
|  \\    /   O peration     | Version:  2206                                  |
|   \\  /    A nd           | Website:  www.openfoam.com                      |
|    \\/     M anipulation  |                                                 |
\*---------------------------------------------------------------------------*/
FoamFile
{
    version     2.0;
    format      ascii;
    arch        "LSB;label=32;scalar=64";
    class       surfaceScalarField;
    location    "0.2";
    object      phi;
}
// * * * * * * * * * * * * * * * * * * * * * * * * * * * * * * * * * * * * * //

dimensions      [0 3 -1 0 0 0 0];

oriented        oriented;

internalField   nonuniform List<scalar> 
3650
(
0.00275139
0.000448607
0.00225729
0.000494103
0.00184742
0.000409872
0.00154394
0.000303477
0.00133982
0.000204123
0.00121352
0.000126302
0.00113927
7.42522e-05
0.0010979
4.13685e-05
0.00107596
2.19418e-05
0.0010648
1.11502e-05
0.00105945
5.35247e-06
0.00105718
2.27114e-06
0.00105657
6.14174e-07
0.00105692
-3.47755e-07
0.00105789
-9.69574e-07
0.0010594
-1.51517e-06
0.00106142
-2.01405e-06
0.0010639
-2.48511e-06
0.0010668
-2.90189e-06
0.00107007
-3.2666e-06
0.00107357
-3.49639e-06
0.0010771
-3.53545e-06
0.00108055
-3.45273e-06
0.00108368
-3.12456e-06
0.00108644
-2.762e-06
0.00108896
-2.52218e-06
0.00109142
-2.46312e-06
0.00109395
-2.53607e-06
0.00109654
-2.58193e-06
0.00109888
-2.34799e-06
0.00110045
-1.56989e-06
0.00110099
-5.43971e-07
0.00110039
6.04454e-07
0.00109873
1.65778e-06
0.00109617
2.56239e-06
0.00109286
3.31586e-06
0.001089
3.85748e-06
0.00108486
4.13962e-06
0.00108066
4.20258e-06
0.00107658
4.08487e-06
0.00107272
3.85584e-06
0.0010691
3.61568e-06
0.00106581
3.29989e-06
0.00106286
2.95035e-06
0.00106025
2.60137e-06
0.00105799
2.2672e-06
0.00105603
1.95572e-06
0.00105437
1.6655e-06
0.00105296
1.40414e-06
0.00105179
1.16877e-06
0.00105083
9.63751e-07
0.00105004
7.89243e-07
0.0010494
6.43238e-07
0.00104888
5.21396e-07
0.00104846
4.20985e-07
0.00104812
3.38337e-07
0.00104785
2.71256e-07
0.00104763
2.16745e-07
0.00104746
1.72725e-07
0.00104732
1.36824e-07
0.00104721
1.08202e-07
0.00104713
8.51971e-08
0.00104706
6.70188e-08
0.00104701
5.24319e-08
0.00104697
4.09886e-08
0.00104694
3.17025e-08
0.00104691
2.44884e-08
0.00104689
1.87045e-08
0.00104688
1.43062e-08
0.00104687
1.0704e-08
0.00104686
7.87529e-09
0.00104686
5.39577e-09
0.00104685
3.38676e-09
0.00104685
1.72495e-09
-1.5438e-10
0.00336366
0.000284952
0.00335056
0.000507198
0.00324534
0.000515093
0.00309643
0.000452391
0.00293743
0.000363122
0.00279835
0.000265386
0.00269319
0.000179407
0.00262038
0.000114183
0.00257225
7.00655e-05
0.00254125
4.21522e-05
0.0025215
2.51031e-05
0.00250886
1.49156e-05
0.00250054
8.93599e-06
0.00249478
5.40445e-06
0.00249057
3.2424e-06
0.0024872
1.8606e-06
0.00248418
1.00475e-06
0.00248111
5.83988e-07
0.0024776
6.11661e-07
0.0024732
1.13287e-06
0.00246742
2.28138e-06
0.00245971
4.17221e-06
0.0024495
6.75853e-06
0.00243663
9.74345e-06
0.00242149
1.23724e-05
0.00240518
1.3793e-05
0.00238939
1.332e-05
0.00237617
1.0689e-05
0.00236742
6.16248e-06
0.00236405
1.02307e-06
0.00236536
-2.87785e-06
0.00237044
-5.62818e-06
0.00237874
-7.70067e-06
0.00238965
-9.24701e-06
0.00240225
-1.0035e-05
0.00241547
-9.90066e-06
0.00242834
-9.01531e-06
0.00244016
-7.67938e-06
0.00245052
-6.15655e-06
0.00245919
-4.57948e-06
0.00246611
-3.06819e-06
0.00247146
-1.73378e-06
0.00247541
-6.49575e-07
0.00247818
1.78908e-07
0.00248002
7.64943e-07
0.00248115
1.1369e-06
0.00248177
1.33406e-06
0.00248205
1.38597e-06
0.00248211
1.34625e-06
0.00248203
1.25088e-06
0.00248186
1.12798e-06
0.00248166
9.93226e-07
0.00248144
8.58368e-07
0.00248123
7.30847e-07
0.00248104
6.15611e-07
0.00248087
5.12128e-07
0.00248071
4.23431e-07
0.00248058
3.48457e-07
0.00248047
2.84792e-07
0.00248038
2.31258e-07
0.0024803
1.86827e-07
0.00248023
1.50227e-07
0.00248018
1.20207e-07
0.00248014
9.5658e-08
0.0024801
7.57404e-08
0.00248007
5.95217e-08
0.00248005
4.64983e-08
0.00248004
3.60562e-08
0.00248002
2.76989e-08
0.00248001
2.09138e-08
0.00248
1.52861e-08
0.00248
1.05445e-08
0.00248
6.37765e-09
0.00248
2.99424e-09
-6.45123e-10
0.00332692
0.000158032
0.00345466
0.000379456
0.00351783
0.000451922
0.00352864
0.000441589
0.00349926
0.000392496
0.00344652
0.00031813
0.00338613
0.000239796
0.00333015
0.000170158
0.00328421
0.000116008
0.00324903
7.73311e-05
0.00322334
5.07919e-05
0.00320494
3.3324e-05
0.00319165
2.22177e-05
0.0031818
1.52576e-05
0.00317421
1.08353e-05
0.00316797
8.0985e-06
0.00316235
6.63128e-06
0.0031567
6.23297e-06
0.00315043
6.88123e-06
0.00314294
8.62488e-06
0.00313344
1.17755e-05
0.00312095
1.66678e-05
0.00310444
2.32623e-05
0.00308326
3.09237e-05
0.00305782
3.78124e-05
0.00302983
4.17848e-05
0.00300187
4.12747e-05
0.0029773
3.52592e-05
0.00295972
2.37432e-05
0.00295103
9.71648e-06
0.00294955
-1.40011e-06
0.00295322
-9.30308e-06
0.0029615
-1.59811e-05
0.00297444
-2.21897e-05
0.00299139
-2.69797e-05
0.00301115
-2.96591e-05
0.00303234
-3.02005e-05
0.00305358
-2.89223e-05
0.0030737
-2.62801e-05
0.00309179
-2.26698e-05
0.00310734
-1.86186e-05
0.00312024
-1.46328e-05
0.00313064
-1.10444e-05
0.00313878
-7.96477e-06
0.00314501
-5.46321e-06
0.00314968
-3.53418e-06
0.00315313
-2.11124e-06
0.00315563
-1.11175e-06
0.00315741
-4.41824e-07
0.00315868
-1.31611e-08
0.00315956
2.45852e-07
0.00316017
3.86958e-07
0.00316058
4.48537e-07
0.00316085
4.60065e-07
0.00316102
4.43668e-07
0.00316113
4.07566e-07
0.00316119
3.62081e-07
0.00316122
3.17929e-07
0.00316123
2.73195e-07
0.00316123
2.31577e-07
0.00316122
1.94099e-07
0.00316121
1.61192e-07
0.0031612
1.32819e-07
0.00316119
1.08343e-07
0.00316117
8.76189e-08
0.00316116
7.02091e-08
0.00316115
5.58405e-08
0.00316115
4.39785e-08
0.00316114
3.41971e-08
0.00316113
2.59879e-08
0.00316113
1.90045e-08
0.00316113
1.3004e-08
0.00316113
7.66667e-09
0.00316113
3.09763e-09
-1.76315e-09
0.00326367
9.43656e-05
0.00338498
0.000258137
0.00348655
0.000350356
0.00355228
0.000375863
0.00358577
0.000359003
0.00358971
0.000314187
0.00357383
0.000255682
0.00354935
0.000194634
0.00352311
0.000142247
0.00349863
0.000101814
0.00347782
7.16002e-05
0.00346116
4.99842e-05
0.00344812
3.52562e-05
0.00343792
2.54582e-05
0.00342995
1.88142e-05
0.00342351
1.45363e-05
0.00341793
1.22101e-05
0.00341262
1.15455e-05
0.00340699
1.25098e-05
0.00340035
1.526e-05
0.00339178
2.03513e-05
0.00337996
2.84833e-05
0.00336332
3.99068e-05
0.00334052
5.3726e-05
0.00331238
6.59429e-05
0.00328202
7.21449e-05
0.00325313
7.01621e-05
0.00322996
5.84301e-05
0.00321665
3.70593e-05
0.00321417
1.21962e-05
0.00321634
-3.5778e-06
0.00321791
-1.08739e-05
0.00321901
-1.70828e-05
0.00322259
-2.57652e-05
0.00323042
-3.48056e-05
0.00324324
-4.24831e-05
0.00326048
-4.74396e-05
0.00328072
-4.91602e-05
0.0033021
-4.76633e-05
0.00332283
-4.33946e-05
0.00334158
-3.73676e-05
0.00335761
-3.0667e-05
0.00337081
-2.42416e-05
0.00338136
-1.85101e-05
0.0033896
-1.37067e-05
0.00339595
-9.88368e-06
0.00340078
-6.94485e-06
0.00340442
-4.7493e-06
0.00340714
-3.15889e-06
0.00340915
-2.02818e-06
0.00341064
-1.23682e-06
0.00341172
-6.94164e-07
0.0034125
-3.33787e-07
0.00341306
-1.03104e-07
0.00341347
3.91058e-08
0.00341376
1.20227e-07
0.00341396
1.61085e-07
0.0034141
1.76703e-07
0.0034142
1.75821e-07
0.00341426
1.65379e-07
0.00341431
1.49957e-07
0.00341434
1.31876e-07
0.00341435
1.1444e-07
0.00341437
9.71074e-08
0.00341437
8.11493e-08
0.00341438
6.68489e-08
0.00341438
5.44805e-08
0.00341438
4.37666e-08
0.00341438
3.45403e-08
0.00341438
2.64459e-08
0.00341438
1.9327e-08
0.00341438
1.30105e-08
0.00341438
7.2761e-09
0.00341438
2.13676e-09
-3.40561e-09
0.00323357
6.0792e-05
0.00331327
0.000178441
0.00340176
0.000261872
0.0034767
0.000300924
0.00353137
0.000304332
0.00356334
0.000282215
0.00357558
0.000243442
0.0035736
0.000196613
0.00356469
0.000151151
0.00355292
0.000113585
0.00354085
8.36751e-05
0.00353
6.08354e-05
0.00352095
4.43101e-05
0.00351361
3.27965e-05
0.0035077
2.47224e-05
0.00350294
1.92981e-05
0.00349893
1.62245e-05
0.00349534
1.51276e-05
0.0034919
1.59577e-05
0.00348795
1.92043e-05
0.00348255
2.57519e-05
0.00347422
3.68196e-05
0.00346084
5.32829e-05
0.00344022
7.43484e-05
0.0034163
8.98623e-05
0.00339674
9.16952e-05
0.00338607
8.08395e-05
0.00338912
5.53766e-05
0.00340732
1.88651e-05
0.00343461
-1.51001e-05
0.00344947
-1.84407e-05
0.00344514
-6.53691e-06
0.00342503
3.01898e-06
0.00340043
-1.16318e-06
0.00337965
-1.40218e-05
0.00336749
-3.03216e-05
0.00336586
-4.58133e-05
0.00337335
-5.66478e-05
0.00338722
-6.15294e-05
0.00340384
-6.00209e-05
0.00342086
-5.43808e-05
0.00343624
-4.60523e-05
0.00344913
-3.71283e-05
0.00345951
-2.88889e-05
0.00346767
-2.18702e-05
0.003474
-1.62083e-05
0.00347885
-1.17933e-05
0.00348253
-8.43219e-06
0.00348531
-5.93999e-06
0.0034874
-4.122e-06
0.00348897
-2.80565e-06
0.00349014
-1.86121e-06
0.00349101
-1.1985e-06
0.00349165
-7.42447e-07
0.00349212
-4.3264e-07
0.00349246
-2.25673e-07
0.00349272
-9.08395e-08
0.0034929
-6.37115e-09
0.00349303
4.34954e-08
0.00349313
7.02332e-08
0.00349319
8.19393e-08
0.00349324
8.395e-08
0.00349328
8.03411e-08
0.0034933
7.3275e-08
0.00349332
6.46418e-08
0.00349333
5.54567e-08
0.00349334
4.68134e-08
0.00349334
3.86071e-08
0.00349334
3.09803e-08
0.00349335
2.39112e-08
0.00349335
1.73761e-08
0.00349335
1.13711e-08
0.00349335
5.76655e-09
0.00349335
5.04161e-10
-5.2531e-09
0.00321889
4.1902e-05
0.00327019
0.000127138
0.00333624
0.000195824
0.00340102
0.000236143
0.00345622
0.00024913
0.00349804
0.000240398
0.00352568
0.000215806
0.00354004
0.000182252
0.00354471
0.000146478
0.00354409
0.000114203
0.00354078
8.69897e-05
0.00353638
6.52315e-05
0.0035319
4.87927e-05
0.00352799
3.67041e-05
0.00352476
2.79604e-05
0.00352231
2.17506e-05
0.00352058
1.79542e-05
0.00351945
1.62545e-05
0.00351885
1.65594e-05
0.00351851
1.95402e-05
0.00351785
2.6418e-05
0.00351545
3.92135e-05
0.00350883
5.99036e-05
0.00349598
8.71998e-05
0.00348932
9.65257e-05
0.00349914
8.1876e-05
0.00353662
4.33604e-05
0.00360307
-1.10743e-05
0.0036868
-6.48674e-05
0.00375119
-7.94815e-05
0.003765
-3.2251e-05
0.0037435
1.4953e-05
0.00369245
5.4069e-05
0.00362538
6.59108e-05
0.00355894
5.24177e-05
0.00350127
2.73476e-05
0.00346266
-7.19884e-06
0.0034441
-3.80922e-05
0.00344094
-5.83652e-05
0.0034472
-6.62846e-05
0.00345722
-6.43977e-05
0.00346844
-5.72704e-05
0.00347865
-4.73412e-05
0.00348707
-3.73081e-05
0.00349372
-2.85233e-05
0.00349887
-2.13564e-05
0.00350281
-1.57299e-05
0.0035058
-1.14258e-05
0.00350807
-8.20461e-06
0.00350978
-5.83225e-06
0.00351107
-4.09629e-06
0.00351204
-2.83327e-06
0.00351277
-1.92951e-06
0.00351332
-1.29253e-06
0.00351373
-8.45988e-07
0.00351404
-5.34911e-07
0.00351427
-3.21001e-07
0.00351445
-1.77569e-07
0.00351457
-8.3799e-08
0.00351467
-2.41483e-08
0.00351474
1.22501e-08
0.00351479
3.28655e-08
0.00351483
4.28482e-08
0.00351485
4.58999e-08
0.00351487
4.46868e-08
0.00351489
4.11304e-08
0.0035149
3.63789e-08
0.00351491
3.10474e-08
0.00351491
2.54178e-08
0.00351491
1.97466e-08
0.00351492
1.41785e-08
0.00351492
8.83677e-09
0.00351492
3.67311e-09
0.00351492
-1.39616e-09
-7.00808e-09
0.00321172
3.01816e-05
0.00324642
9.24351e-05
0.00329563
0.000146619
0.00334872
0.000183053
0.00339848
0.000199375
0.0034408
0.000198077
0.00347357
0.000183033
0.00349651
0.000159308
0.00351083
0.000132164
0.00351905
0.000105979
0.00352314
8.29031e-05
0.00352465
6.37209e-05
0.0035249
4.85449e-05
0.00352464
3.69653e-05
0.00352429
2.83085e-05
0.00352417
2.18705e-05
0.00352461
1.7521e-05
0.00352592
1.49439e-05
0.0035284
1.40802e-05
0.0035324
1.55382e-05
0.00353803
2.07902e-05
0.00354454
3.27027e-05
0.00355017
5.42706e-05
0.00355541
8.19653e-05
0.00357349
7.84474e-05
0.00361855
3.68179e-05
0.00369364
-3.17294e-05
0.00376833
-8.57623e-05
0.00224635
1.70633e-18
0.00127183
1.21319e-18
0.000926254
8.72257e-19
0.00126469
7.58848e-19
0.00222097
7.9709e-19
0.00372666
5.05919e-19
0.00370317
7.59043e-05
0.00363854
9.19836e-05
0.00357135
5.9992e-05
0.00352247
1.07913e-05
0.00349691
-3.28122e-05
0.00348819
-5.75618e-05
0.00348819
-6.44009e-05
0.00349215
-6.12298e-05
0.00349763
-5.28173e-05
0.00350269
-4.23634e-05
0.00350677
-3.2609e-05
0.00350996
-2.45419e-05
0.0035124
-1.81736e-05
0.00351427
-1.32911e-05
0.00351568
-9.62315e-06
0.00351676
-6.90689e-06
0.00351758
-4.91277e-06
0.0035182
-3.45832e-06
0.00351868
-2.40856e-06
0.00351905
-1.65914e-06
0.00351933
-1.12646e-06
0.00351954
-7.49513e-07
0.00351971
-4.85347e-07
0.00351983
-3.03772e-07
0.00351993
-1.80569e-07
0.00352
-9.81682e-08
0.00352006
-4.4249e-08
0.0035201
-1.01531e-08
0.00352014
1.01338e-08
0.00352016
2.10945e-08
0.00352018
2.59301e-08
0.00352019
2.70084e-08
0.0035202
2.57222e-08
0.00352021
2.29539e-08
0.00352022
1.92312e-08
0.00352022
1.49696e-08
0.00352023
1.04736e-08
0.00352023
5.94031e-09
0.00352023
1.42216e-09
0.00352023
-3.22853e-09
-8.43648e-09
0.00320818
2.2003e-05
0.00323314
6.74707e-05
0.00327095
0.000108813
0.00331475
0.00013925
0.00335876
0.000155369
0.00339907
0.000157763
0.00343321
0.00014889
0.00346012
0.000132406
0.00347996
0.00011232
0.00349396
9.19777e-05
0.00350349
7.33739e-05
0.00350979
5.74268e-05
0.00351394
4.43909e-05
0.00351681
3.40966e-05
0.00351905
2.60716e-05
0.00352109
1.98318e-05
0.00352351
1.51009e-05
0.00352697
1.14846e-05
0.00353225
8.80018e-06
0.00354061
7.1765e-06
0.00355337
8.028e-06
0.00357121
1.48637e-05
0.0035933
3.21871e-05
0.00361032
6.49453e-05
0.00362158
6.71918e-05
0.00364955
8.84322e-06
0.00259988
-2.47353e-05
4.91945e-18
1.2935e-18
2.68685e-18
-7.64247e-21
1.29871e-18
4.10898e-21
1.19883e-18
1.78291e-20
1.41847e-18
3.99961e-20
1.68566e-18
6.8567e-20
2.76524e-18
1.97295e-19
0.0026346
2.91658e-19
0.00367194
5.27476e-05
0.00363735
9.45838e-05
0.00358882
5.93153e-05
0.00355102
4.9881e-06
0.00353021
-3.67469e-05
0.00352075
-5.49388e-05
0.00351693
-5.74141e-05
0.00351619
-5.20727e-05
0.00351676
-4.2932e-05
0.00351757
-3.34247e-05
0.0035183
-2.52693e-05
0.00351889
-1.8765e-05
0.00351936
-1.3763e-05
0.00351974
-9.99995e-06
0.00352004
-7.20964e-06
0.00352029
-5.15957e-06
0.0035205
-3.66347e-06
0.00352067
-2.5795e-06
0.00352081
-1.80011e-06
0.00352092
-1.24264e-06
0.00352102
-8.45694e-07
0.0035211
-5.65322e-07
0.00352117
-3.69771e-07
0.00352122
-2.34362e-07
0.00352126
-1.41771e-07
0.0035213
-7.96183e-08
0.00352133
-3.89023e-08
0.00352135
-1.30733e-08
0.00352137
2.40664e-09
0.00352138
1.10457e-08
0.0035214
1.52515e-08
0.00352141
1.6445e-08
0.00352141
1.55567e-08
0.00352142
1.33312e-08
0.00352142
1.02815e-08
0.00352143
6.79765e-09
0.00352143
3.09503e-09
0.00352143
-7.0598e-10
0.00352143
-4.76497e-09
-9.3564e-09
0.00320626
1.57475e-05
0.00322546
4.82703e-05
0.00325569
7.85832e-05
0.00329274
0.000102198
0.003332
0.000116106
0.00336991
0.000119855
0.00340394
0.00011486
0.00343262
0.00010372
0.00345557
8.93748e-05
0.00347324
7.43098e-05
0.00348648
6.01363e-05
0.00349622
4.76852e-05
0.00350337
3.72415e-05
0.00350873
2.87315e-05
0.00351298
2.18302e-05
0.00351665
1.61622e-05
0.0035204
1.13503e-05
0.00352506
6.82278e-06
0.00353187
1.99145e-06
0.00354294
-3.89718e-06
0.00356074
-9.77195e-06
0.00358654
-1.09284e-05
0.00361478
3.94946e-06
0.00362175
5.79722e-05
0.00359664
9.23073e-05
0.00269437
2.39517e-05
4.18269e-18
9.25748e-19
1.18341e-18
-3.46437e-21
4.67831e-20
-1.62588e-22
6.62561e-20
-4.65499e-22
1.52708e-19
6.74968e-21
3.16896e-19
1.90595e-20
6.40602e-19
1.85705e-20
1.42957e-18
3.83636e-20
2.80956e-18
1.24353e-19
0.00279704
2.19284e-19
0.00363953
6.46039e-05
0.00362044
7.84059e-05
0.00359076
3.46667e-05
0.00356715
-1.3136e-05
0.00355145
-3.92379e-05
0.00354148
-4.7448e-05
0.00353503
-4.56254e-05
0.00353088
-3.87758e-05
0.0035281
-3.06503e-05
0.00352615
-2.33173e-05
0.00352474
-1.7357e-05
0.00352373
-1.27458e-05
0.003523
-9.27289e-06
0.00352249
-6.69846e-06
0.00352214
-4.80786e-06
0.0035219
-3.42857e-06
0.00352175
-2.42802e-06
0.00352166
-1.70651e-06
0.0035216
-1.18869e-06
0.00352158
-8.1882e-07
0.00352157
-5.56154e-07
0.00352157
-3.71229e-07
0.00352158
-2.42061e-07
0.00352159
-1.52783e-07
0.0035216
-9.21344e-08
0.00352161
-5.16637e-08
0.00352162
-2.5194e-08
0.00352163
-8.58217e-09
0.00352164
1.29888e-09
0.00352165
6.8197e-09
0.00352166
9.27528e-09
0.00352167
9.48184e-09
0.00352167
8.2368e-09
0.00352168
6.10809e-09
0.00352168
3.48695e-09
0.00352168
5.78844e-10
0.00352168
-2.49632e-09
0.00352168
-5.85126e-09
-9.67501e-09
0.00320513
1.06183e-05
0.00322089
3.25111e-05
0.00324621
5.32646e-05
0.00327847
6.99349e-05
0.00331418
8.03976e-05
0.00335003
8.40072e-05
0.00338346
8.14226e-05
0.00341287
7.43102e-05
0.00343753
6.47176e-05
0.00345747
5.43765e-05
0.00347315
4.4447e-05
0.00348528
3.55608e-05
0.00349457
2.79544e-05
0.00350171
2.15933e-05
0.00350728
1.62521e-05
0.00351183
1.16132e-05
0.00351593
7.25927e-06
0.00352027
2.4787e-06
0.00352603
-3.76465e-06
0.00353489
-1.27594e-05
0.00354859
-2.34639e-05
0.00356796
-3.03041e-05
0.00359093
-1.90093e-05
0.00358824
6.06582e-05
0.0035476
0.000132956
5.23104e-18
1.47469e-05
1.65432e-18
5.3455e-20
3.50162e-20
-1.2675e-22
3.52769e-20
0
3.69054e-20
1.02842e-25
8.19288e-20
1.24067e-20
1.42203e-19
1.00141e-20
3.0568e-19
1.36172e-20
7.47248e-19
1.9653e-20
1.43898e-18
4.94719e-20
2.80394e-18
5.10747e-20
0.00360898
1.2423e-05
0.00361764
6.97454e-05
0.00360844
4.38694e-05
0.0035921
3.20497e-06
0.00357623
-2.33751e-05
0.00356286
-3.40727e-05
0.00355217
-3.49409e-05
0.00354401
-3.06116e-05
0.00353791
-2.45464e-05
0.00353339
-1.87974e-05
0.00353006
-1.40274e-05
0.00352762
-1.0309e-05
0.00352585
-7.50306e-06
0.00352457
-5.42364e-06
0.00352366
-3.89785e-06
0.00352302
-2.78548e-06
0.00352257
-1.97853e-06
0.00352226
-1.39602e-06
0.00352205
-9.77305e-07
0.00352191
-6.77626e-07
0.00352182
-4.64169e-07
0.00352176
-3.13135e-07
0.00352172
-2.07143e-07
0.0035217
-1.33496e-07
0.0035217
-8.30917e-08
0.00352169
-4.90849e-08
0.00352169
-2.66091e-08
0.0035217
-1.21644e-08
0.0035217
-3.35035e-09
0.00352171
1.75678e-09
0.00352171
4.25984e-09
0.00352172
4.82831e-09
0.00352172
4.10036e-09
0.00352172
2.60577e-09
0.00352173
6.7971e-10
0.00352173
-1.50462e-09
0.00352173
-3.87213e-09
0.00352173
-6.45351e-09
-9.42972e-09
0.00320448
6.14167e-06
0.0032182
1.87921e-05
0.00324055
3.09113e-05
0.00326966
4.08269e-05
0.0033028
4.72566e-05
0.00333707
4.97391e-05
0.00336992
4.85665e-05
0.0033996
4.46336e-05
0.00342519
3.91306e-05
0.00344647
3.3094e-05
0.0034637
2.72208e-05
0.00347736
2.18991e-05
0.00348803
1.72797e-05
0.00349628
1.33462e-05
0.00350258
9.95554e-06
0.00350731
6.8778e-06
0.00351082
3.74929e-06
0.0035133
3.36908e-09
0.00351471
-5.17046e-06
0.00351615
-1.42029e-05
0.00351947
-2.67791e-05
0.00352581
-3.66371e-05
0.00352214
-1.53354e-05
0.00353131
5.14817e-05
0.00354205
0.000122219
3.65872e-18
9.27924e-19
7.11571e-19
1.8893e-20
3.48704e-20
0
3.35298e-20
0
4.01817e-20
0
3.89988e-20
-1.30585e-22
8.75839e-20
-1.6035e-21
1.94338e-19
-8.06111e-22
4.29502e-19
1.71907e-20
8.57651e-19
-1.38121e-21
2.13389e-18
-5.33792e-23
0.00356922
1.06071e-19
0.00359782
4.11425e-05
0.0036089
3.27948e-05
0.00360488
7.22639e-06
0.00359305
-1.15513e-05
0.00357903
-2.0053e-05
0.00356576
-2.1671e-05
0.00355466
-1.95072e-05
0.00354592
-1.581e-05
0.0035393
-1.21723e-05
0.00353438
-9.10375e-06
0.00353076
-6.69613e-06
0.00352813
-4.8744e-06
0.00352623
-3.52393e-06
0.00352487
-2.53358e-06
0.0035239
-1.81189e-06
0.00352321
-1.28857e-06
0.00352272
-9.10729e-07
0.00352238
-6.39026e-07
0.00352215
-4.44352e-07
0.00352199
-3.05477e-07
0.00352188
-2.06967e-07
0.00352181
-1.377e-07
0.00352177
-8.95399e-08
0.00352174
-5.64945e-08
0.00352173
-3.41623e-08
0.00352172
-1.92867e-08
0.00352172
-9.66599e-09
0.00352172
-3.76102e-09
0.00352172
-4.3894e-10
0.00352172
1.14506e-09
0.00352173
1.39912e-09
0.00352173
7.88951e-10
0.00352173
-3.0822e-10
0.00352174
-1.68695e-09
0.00352174
-3.2224e-09
0.00352174
-4.84446e-09
0.00352174
-6.64526e-09
-8.76578e-09
0.00320411
2.03667e-06
0.00321673
6.17094e-06
0.00323748
1.01596e-05
0.00326484
1.3461e-05
0.00329649
1.56152e-05
0.00332975
1.64765e-05
0.00336218
1.61361e-05
0.00339194
1.4875e-05
0.00341799
1.30791e-05
0.00343999
1.10937e-05
0.00345806
9.15124e-06
0.00347258
7.38165e-06
0.00348402
5.83607e-06
0.00349286
4.50977e-06
0.00349946
3.35352e-06
0.00350405
2.28588e-06
0.00350665
1.1484e-06
0.00350687
-2.10775e-07
0.00350384
-2.13472e-06
0.0034949
-5.26534e-06
0.00347745
-9.32887e-06
0.00345198
-1.11635e-05
0.00343643
2.19697e-07
0.00346007
2.78405e-05
5.59219e-18
2.54929e-05
1.55223e-18
4.58961e-20
3.4682e-20
0
3.47433e-20
0
3.43448e-20
0
3.6538e-20
0
3.46478e-20
-4.80404e-24
7.04763e-20
-2.6853e-22
1.7221e-19
1.03472e-20
3.13599e-19
-5.2629e-22
7.02686e-19
-9.93025e-23
1.76594e-18
4.29837e-20
2.79206e-18
6.73315e-21
0.0035866
1.13389e-05
0.00360716
1.22361e-05
0.00361081
3.57367e-06
0.00360245
-3.19084e-06
0.00358878
-6.38391e-06
0.00357435
-7.23854e-06
0.00356149
-6.64872e-06
0.00355112
-5.43628e-06
0.00354315
-4.20052e-06
0.00353719
-3.14451e-06
0.00353281
-2.31354e-06
0.00352961
-1.68323e-06
0.00352731
-1.21583e-06
0.00352565
-8.7315e-07
0.00352446
-6.23485e-07
0.00352361
-4.42624e-07
0.00352301
-3.12222e-07
0.00352259
-2.18548e-07
0.0035223
-1.51471e-07
0.0035221
-1.03601e-07
0.00352196
-6.96599e-08
0.00352187
-4.58956e-08
0.00352181
-2.95745e-08
0.00352177
-1.85122e-08
0.00352175
-1.1167e-08
0.00352173
-6.29205e-09
0.00352173
-3.24032e-09
0.00352172
-1.47163e-09
0.00352172
-7.4742e-10
0.00352173
-7.14134e-10
0.00352173
-1.17874e-09
0.00352173
-1.92643e-09
0.00352173
-2.78943e-09
0.00352174
-3.6959e-09
0.00352174
-4.62296e-09
0.00352174
-5.56831e-09
0.00352174
-6.63348e-09
-7.78162e-09
0.00320396
-1.92304e-06
0.0032162
-6.07075e-06
0.00323642
-1.00603e-05
0.00326327
-1.33823e-05
0.00329444
-1.55644e-05
0.00332738
-1.64567e-05
0.00335966
-1.61426e-05
0.00338943
-1.48999e-05
0.00341562
-1.31141e-05
0.00343785
-1.11319e-05
0.00345619
-9.18695e-06
0.00347098
-7.41028e-06
0.00348267
-5.85403e-06
0.0034917
-4.51416e-06
0.00349839
-3.34107e-06
0.00350293
-2.25278e-06
0.00350516
-1.08483e-06
0.00350465
3.06578e-07
0.00350021
2.30216e-06
0.00348944
5.51311e-06
0.00347055
9.5621e-06
0.00344808
1.13039e-05
0.00344833
-2.54632e-08
0.00350466
-2.84837e-05
5.36454e-18
-2.66448e-05
1.38224e-18
-4.68025e-20
3.46827e-20
0
3.47367e-20
0
3.43711e-20
0
3.65459e-20
0
3.17247e-20
4.80033e-24
7.89188e-20
2.69133e-22
1.27702e-19
-1.03432e-20
2.74903e-19
5.31853e-22
6.96636e-19
2.6273e-22
1.31296e-18
-5.37115e-20
2.68734e-18
-7.13911e-21
0.00357983
-1.16876e-05
0.00360451
-1.24514e-05
0.00361153
-3.44077e-06
0.00360489
3.44381e-06
0.00359187
6.63712e-06
0.00357721
7.42761e-06
0.00356381
6.75149e-06
0.00355289
5.47485e-06
0.00354447
4.22512e-06
0.00353816
3.16697e-06
0.00353351
2.3337e-06
0.00353012
1.70172e-06
0.00352767
1.233e-06
0.00352591
8.89292e-07
0.00352465
6.3889e-07
0.00352375
4.57013e-07
0.00352311
3.25302e-07
0.00352266
2.30247e-07
0.00352235
1.61953e-07
0.00352213
1.13173e-07
0.00352198
7.83591e-08
0.00352189
5.35624e-08
0.00352182
3.5861e-08
0.00352178
2.33543e-08
0.00352175
1.45972e-08
0.00352174
8.62479e-09
0.00352173
4.5018e-09
0.00352173
1.63676e-09
0.00352173
-4.63518e-10
0.00352173
-2.13652e-09
0.00352173
-3.45678e-09
0.00352173
-4.4197e-09
0.00352173
-5.08898e-09
0.00352174
-5.54721e-09
0.00352174
-5.8743e-09
0.00352174
-6.1689e-09
0.00352174
-6.42634e-09
-6.51566e-09
0.00320408
-6.00523e-06
0.00321673
-1.87158e-05
0.00323748
-3.0816e-05
0.00326485
-4.07517e-05
0.00329649
-4.72063e-05
0.00332976
-4.9719e-05
0.00336219
-4.85725e-05
0.00339194
-4.46577e-05
0.00341799
-3.9165e-05
0.00343999
-3.31317e-05
0.00345806
-2.72563e-05
0.00347258
-2.19281e-05
0.00348403
-1.7299e-05
0.00349287
-1.33532e-05
0.00349947
-9.94781e-06
0.00350407
-6.85259e-06
0.00350669
-3.70236e-06
0.00350693
6.88846e-08
0.00350395
5.28506e-06
0.0034951
1.43709e-05
0.00347766
2.70008e-05
0.00345199
3.69724e-05
0.00343585
1.61216e-05
0.00345821
-5.08373e-05
5.58994e-18
-0.000125236
1.55299e-18
-9.38308e-19
3.4682e-20
-1.96098e-20
3.47433e-20
0
3.43449e-20
0
3.65383e-20
0
3.46501e-20
1.30669e-22
7.04735e-20
1.60416e-21
1.72017e-19
8.07266e-22
3.11588e-19
-1.71569e-20
6.93069e-19
1.51327e-21
1.76357e-18
4.98476e-22
2.79187e-18
-1.06138e-19
0.00358617
-4.10611e-05
0.00360641
-3.26897e-05
0.00361011
-7.13639e-06
0.00360195
1.15992e-05
0.00358848
2.01049e-05
0.00357419
2.17241e-05
0.00356141
1.95309e-05
0.00355107
1.58118e-05
0.00354312
1.21798e-05
0.00353717
9.11466e-06
0.00353279
6.70905e-06
0.0035296
4.88836e-06
0.0035273
3.53832e-06
0.00352564
2.54802e-06
0.00352445
1.82618e-06
0.00352361
1.30222e-06
0.00352301
9.23373e-07
0.00352259
6.50445e-07
0.0035223
4.54683e-07
0.00352209
3.14864e-07
0.00352196
2.1546e-07
0.00352187
1.45089e-07
0.00352181
9.5595e-08
0.00352177
6.11273e-08
0.00352175
3.74618e-08
0.00352173
2.14539e-08
0.00352173
1.07808e-08
0.00352172
3.74995e-09
0.00352172
-9.49947e-10
0.00352173
-4.11423e-09
0.00352173
-6.05891e-09
0.00352173
-7.10249e-09
0.00352173
-7.47248e-09
0.00352174
-7.43137e-09
0.00352174
-7.13104e-09
0.00352174
-6.72703e-09
0.00352174
-6.1805e-09
-5.27464e-09
0.00320446
-1.04614e-05
0.0032182
-3.24588e-05
0.00324056
-5.31757e-05
0.00326967
-6.98644e-05
0.00330281
-8.03494e-05
0.00333708
-8.39876e-05
0.00336994
-8.14279e-05
0.00339961
-7.43333e-05
0.0034252
-6.47507e-05
0.00344648
-5.44132e-05
0.00346371
-4.44821e-05
0.00347737
-3.55902e-05
0.00348805
-2.7976e-05
0.0034963
-2.16041e-05
0.0035026
-1.62526e-05
0.00350735
-1.15994e-05
0.00351088
-7.23223e-06
0.00351339
-2.4359e-06
0.00351485
3.82611e-06
0.00351639
1.28291e-05
0.00351992
2.34742e-05
0.00352659
3.03045e-05
0.00352359
1.91265e-05
0.00353359
-6.08392e-05
0.00354358
-0.000135222
3.6739e-18
-1.32226e-05
7.15767e-19
-5.28881e-20
3.48703e-20
1.28234e-22
3.35301e-20
0
4.01856e-20
-1.09923e-25
3.90054e-20
-1.24083e-20
8.7592e-20
-1.00133e-20
1.94306e-19
-1.36143e-20
4.29373e-19
-1.9653e-20
8.57691e-19
-4.94536e-20
2.13363e-18
-5.08556e-20
0.00356918
-1.23763e-05
0.00359749
-6.9375e-05
0.00360844
-4.36381e-05
0.00360453
-3.22435e-06
0.00359281
2.3318e-05
0.0035789
3.40101e-05
0.00356571
3.49115e-05
0.00355463
3.06143e-05
0.0035459
2.45409e-05
0.00353928
1.88006e-05
0.00353436
1.4035e-05
0.00353075
1.03192e-05
0.00352812
7.51483e-06
0.00352622
5.43615e-06
0.00352486
3.91088e-06
0.00352389
2.79857e-06
0.0035232
1.99128e-06
0.00352271
1.40805e-06
0.00352238
9.88358e-07
0.00352214
6.87693e-07
0.00352198
4.73253e-07
0.00352188
3.21208e-07
0.00352181
2.14026e-07
0.00352177
1.39102e-07
0.00352174
8.73474e-08
0.00352173
5.21314e-08
0.00352172
2.84908e-08
0.00352172
1.29708e-08
0.00352172
2.96279e-09
0.00352172
-3.46857e-09
0.00352172
-7.43499e-09
0.00352173
-9.51498e-09
0.00352173
-1.03134e-08
0.00352173
-1.02095e-08
0.00352173
-9.55253e-09
0.00352173
-8.54949e-09
0.00352174
-7.36279e-09
0.00352174
-5.97013e-09
-4.11121e-09
0.00320513
-1.55927e-05
0.0032209
-4.82261e-05
0.00324622
-7.85e-05
0.00327849
-0.000102133
0.0033142
-0.000116062
0.00335005
-0.000119837
0.00338349
-0.000114865
0.0034129
-0.000103742
0.00343755
-8.94059e-05
0.00345748
-7.43445e-05
0.00347317
-6.017e-05
0.0034853
-4.77147e-05
0.00349459
-3.72646e-05
0.00350173
-2.8747e-05
0.00350731
-2.18383e-05
0.00351188
-1.61622e-05
0.00351599
-1.13418e-05
0.00352036
-6.81111e-06
0.00352617
-1.9833e-06
0.00353513
3.87808e-06
0.00354896
9.64297e-06
0.0035686
1.06601e-05
0.00359198
-4.24831e-06
0.0035897
-5.85541e-05
0.00354797
-9.35008e-05
5.23413e-18
-2.20494e-05
1.65489e-18
-9.22254e-19
3.499e-20
3.98962e-21
3.52781e-20
1.62857e-22
3.69091e-20
4.65833e-22
8.1944e-20
-6.7513e-21
1.42232e-19
-1.90569e-20
3.05981e-19
-1.85824e-20
7.48638e-19
-3.84429e-20
1.43978e-18
-1.24308e-19
2.80412e-18
-2.19154e-19
0.00360879
-6.43658e-05
0.00361745
-7.80317e-05
0.0036083
-3.44898e-05
0.00359204
1.30357e-05
0.00357625
3.91063e-05
0.0035629
4.73592e-05
0.00355221
4.56e-05
0.00354403
3.87913e-05
0.00353791
3.06617e-05
0.00353338
2.33287e-05
0.00353005
1.73688e-05
0.00352761
1.27577e-05
0.00352584
9.2851e-06
0.00352457
6.71077e-06
0.00352366
4.82032e-06
0.00352301
3.44084e-06
0.00352256
2.44003e-06
0.00352225
1.71795e-06
0.00352204
1.19937e-06
0.0035219
8.28547e-07
0.00352181
5.64834e-07
0.00352175
3.78703e-07
0.00352172
2.48286e-07
0.0035217
1.57742e-07
0.00352169
9.59176e-08
0.00352169
5.43267e-08
0.00352169
2.67071e-08
0.00352169
8.92149e-09
0.0035217
-2.19344e-09
0.00352171
-8.97883e-09
0.00352171
-1.26991e-08
0.00352172
-1.42052e-08
0.00352172
-1.42753e-08
0.00352172
-1.34106e-08
0.00352172
-1.19854e-08
0.00352173
-1.02174e-08
0.00352173
-8.23134e-09
0.00352173
-5.95782e-09
-3.12805e-09
0.00320627
-2.18631e-05
0.00322547
-6.74271e-05
0.00325571
-0.000108736
0.00329277
-0.000139191
0.00333203
-0.00015533
0.00336994
-0.000157747
0.00340397
-0.000148894
0.00343265
-0.000132425
0.0034556
-0.000112348
0.00347326
-9.20094e-05
0.0034865
-7.34055e-05
0.00349624
-5.74554e-05
0.00350339
-4.44148e-05
0.00350876
-3.41156e-05
0.003513
-2.60848e-05
0.00351669
-1.98421e-05
0.00352045
-1.51071e-05
0.00352513
-1.14946e-05
0.00353198
-8.82381e-06
0.00354309
-7.23229e-06
0.0035609
-8.173e-06
0.00358669
-1.51325e-05
0.00361494
-3.24977e-05
0.00362137
-6.49872e-05
0.00359558
-6.77044e-05
0.00269397
-7.60709e-06
4.1817e-18
2.43361e-05
1.18359e-18
-1.29294e-18
4.67989e-20
7.55774e-21
6.62741e-20
-4.08352e-21
1.5278e-19
-1.78325e-20
3.17236e-19
-4.00155e-20
6.41173e-19
-6.85833e-20
1.43002e-18
-1.97352e-19
2.80985e-18
-2.91703e-19
0.00279701
-5.27186e-05
0.00363949
-9.4335e-05
0.00362047
-5.90152e-05
0.0035909
-4.91845e-06
0.00356731
3.66222e-05
0.00355159
5.48307e-05
0.00354157
5.73762e-05
0.00353508
5.20893e-05
0.0035309
4.29712e-05
0.00352811
3.34506e-05
0.00352615
2.52884e-05
0.00352474
1.8781e-05
0.00352372
1.37773e-05
0.00352299
1.00133e-05
0.00352248
7.22253e-06
0.00352213
5.17203e-06
0.00352189
3.67537e-06
0.00352174
2.59099e-06
0.00352165
1.81101e-06
0.00352159
1.2529e-06
0.00352157
8.54991e-07
0.00352156
5.73475e-07
0.00352156
3.7657e-07
0.00352157
2.39813e-07
0.00352158
1.46014e-07
0.00352159
8.28481e-08
0.00352161
4.1071e-08
0.00352162
1.41015e-08