/*--------------------------------*- C++ -*----------------------------------*\
| =========                 |                                                 |
| \\      /  F ield         | OpenFOAM: The Open Source CFD Toolbox           |
|  \\    /   O peration     | Version:  2206                                  |
|   \\  /    A nd           | Website:  www.openfoam.com                      |
|    \\/     M anipulation  |                                                 |
\*---------------------------------------------------------------------------*/
FoamFile
{
    version     2.0;
    format      ascii;
    arch        "LSB;label=32;scalar=64";
    class       volVectorField;
    location    "0.2";
    object      U;
}
// * * * * * * * * * * * * * * * * * * * * * * * * * * * * * * * * * * * * * //

dimensions      [0 1 -1 0 0 0 0];

internalField   nonuniform List<vector> 
1875
(
(0.791567 0.0203386 0)
(0.751481 0.0829443 0)
(0.653881 0.0809165 0)
(0.528682 0.0472969 0)
(0.443647 0.0220313 0)
(0.394364 0.0102936 0)
(0.365204 0.0045391 0)
(0.348166 0.00168618 0)
(0.33883 0.000383983 0)
(0.334022 -0.000141939 0)
(0.331662 -0.000334415 0)
(0.330588 -0.000398006 0)
(0.3302 -0.000422895 0)
(0.330202 -0.000454875 0)
(0.330425 -0.000513298 0)
(0.33083 -0.000589702 0)
(0.331396 -0.000690157 0)
(0.332112 -0.000815123 0)
(0.33297 -0.000964224 0)
(0.33395 -0.00113126 0)
(0.335023 -0.00130539 0)
(0.336134 -0.00146865 0)
(0.337228 -0.00159994 0)
(0.338234 -0.00170331 0)
(0.339108 -0.00176676 0)
(0.339865 -0.00176684 0)
(0.340563 -0.00167203 0)
(0.341276 -0.00145986 0)
(0.342044 -0.00112408 0)
(0.34282 -0.000658274 0)
(0.343452 -0.000100597 0)
(0.343809 0.000460412 0)
(0.343859 0.000996386 0)
(0.343572 0.00141959 0)
(0.342973 0.00170803 0)
(0.342096 0.00185378 0)
(0.340996 0.00188012 0)
(0.339752 0.00180946 0)
(0.338449 0.0016729 0)
(0.337145 0.00150094 0)
(0.335892 0.00131373 0)
(0.334714 0.00111853 0)
(0.333622 0.000935114 0)
(0.332633 0.000775727 0)
(0.331758 0.000638438 0)
(0.330991 0.000521698 0)
(0.330326 0.000422245 0)
(0.329755 0.000341496 0)
(0.329273 0.000275013 0)
(0.328869 0.000219541 0)
(0.328535 0.000174641 0)
(0.32826 0.000138273 0)
(0.328037 0.000109232 0)
(0.327854 8.59405e-05 0)
(0.327707 6.76905e-05 0)
(0.327589 5.31481e-05 0)
(0.327494 4.17079e-05 0)
(0.327418 3.26373e-05 0)
(0.327357 2.54519e-05 0)
(0.327309 1.97618e-05 0)
(0.32727 1.52874e-05 0)
(0.327241 1.17686e-05 0)
(0.327217 9.05476e-06 0)
(0.327198 6.94839e-06 0)
(0.327184 5.2995e-06 0)
(0.327173 4.01464e-06 0)
(0.327164 3.02439e-06 0)
(0.327157 2.27035e-06 0)
(0.327152 1.69791e-06 0)
(0.327148 1.2495e-06 0)
(0.327145 8.85973e-07 0)
(0.327143 5.87231e-07 0)
(0.327142 3.36939e-07 0)
(0.327141 1.49558e-07 0)
(0.327141 -8.53206e-08 0)
(1.01353 0.122786 0)
(1.05027 0.1824 0)
(1.03848 0.169675 0)
(0.995506 0.142249 0)
(0.943021 0.106508 0)
(0.893518 0.0704037 0)
(0.855762 0.043054 0)
(0.828456 0.0248497 0)
(0.809965 0.0137534 0)
(0.798027 0.00740023 0)
(0.790437 0.00388342 0)
(0.785605 0.00196827 0)
(0.782487 0.000927735 0)
(0.780397 0.000337308 0)
(0.778905 -3.27289e-05 0)
(0.777771 -0.000292938 0)
(0.776816 -0.000491345 0)
(0.775907 -0.000641963 0)
(0.774923 -0.000742 0)
(0.773736 -0.000779485 0)
(0.772196 -0.000725947 0)
(0.770134 -0.000551603 0)
(0.767359 -0.00025509 0)
(0.763725 9.71127e-05 0)
(0.759253 0.000384575 0)
(0.754181 0.000487879 0)
(0.74892 0.000334591 0)
(0.744152 -5.87717e-05 0)
(0.740549 -0.000574452 0)
(0.738588 -0.000972264 0)
(0.738387 -0.00106069 0)
(0.739402 -0.00101675 0)
(0.741622 -0.000840015 0)
(0.744785 -0.000610432 0)
(0.74861 -0.000330242 0)
(0.752781 1.8522e-08 0)
(0.756977 0.000333832 0)
(0.760895 0.000616137 0)
(0.764391 0.0008284 0)
(0.767371 0.000978052 0)
(0.769794 0.00106834 0)
(0.771687 0.00109894 0)
(0.773112 0.0010841 0)
(0.774133 0.00103592 0)
(0.774826 0.000964973 0)
(0.775266 0.000880096 0)
(0.775518 0.00078924 0)
(0.775641 0.000691207 0)
(0.775683 0.000596302 0)
(0.775671 0.000507136 0)
(0.775625 0.000425899 0)
(0.775562 0.000354599 0)
(0.775493 0.000293061 0)
(0.775424 0.000240492 0)
(0.775359 0.000195793 0)
(0.7753 0.000158749 0)
(0.775249 0.000128231 0)
(0.775204 0.000103308 0)
(0.775165 8.29289e-05 0)
(0.775133 6.62688e-05 0)
(0.775106 5.27811e-05 0)
(0.775083 4.18133e-05 0)
(0.775065 3.30607e-05 0)
(0.775049 2.60088e-05 0)
(0.775037 2.0408e-05 0)
(0.775028 1.5877e-05 0)
(0.77502 1.23085e-05 0)
(0.775014 9.45395e-06 0)
(0.775009 7.23211e-06 0)
(0.775005 5.43424e-06 0)
(0.775003 3.99509e-06 0)
(0.775001 2.76612e-06 0)
(0.774999 1.71344e-06 0)
(0.774999 8.70817e-07 0)
(0.774999 -4.70637e-08 0)
(1.01313 0.0744814 0)
(1.05976 0.145302 0)
(1.09246 0.155748 0)
(1.10597 0.144394 0)
(1.10043 0.123679 0)
(1.08649 0.0973179 0)
(1.06799 0.0706317 0)
(1.04903 0.0478498 0)
(1.03276 0.0309465 0)
(1.0201 0.0194446 0)
(1.01073 0.0120505 0)
(1.00399 0.00747028 0)
(0.999171 0.00471681 0)
(0.995667 0.00307105 0)
(0.993022 0.00206775 0)
(0.990929 0.00145909 0)
(0.989136 0.00112395 0)
(0.987431 0.00101155 0)
(0.985628 0.00112666 0)
(0.983547 0.00149606 0)
(0.980974 0.00216701 0)
(0.977628 0.0031764 0)
(0.973169 0.00450263 0)
(0.967293 0.00600161 0)
(0.95989 0.00731318 0)
(0.951321 0.00803635 0)
(0.942244 0.00785531 0)
(0.93364 0.00656296 0)
(0.92675 0.00420926 0)
(0.922585 0.00143916 0)
(0.921155 -0.000732294 0)
(0.921579 -0.00234806 0)
(0.923586 -0.00375925 0)
(0.927048 -0.00495428 0)
(0.931875 -0.00574302 0)
(0.937782 -0.00602955 0)
(0.944334 -0.00587268 0)
(0.951087 -0.00537813 0)
(0.957632 -0.00466705 0)
(0.963644 -0.00384288 0)
(0.968911 -0.00299527 0)
(0.973338 -0.00219498 0)
(0.976946 -0.00149514 0)
(0.979807 -0.000923068 0)
(0.982016 -0.000483997 0)
(0.983685 -0.000167437 0)
(0.984923 4.61055e-05 0)
(0.985826 0.000176512 0)
(0.986476 0.000246458 0)
(0.986937 0.000275709 0)
(0.987261 0.000278613 0)
(0.987484 0.000265153 0)
(0.987636 0.000242292 0)
(0.987737 0.000215382 0)
(0.987803 0.000188659 0)
(0.987843 0.00016138 0)
(0.987867 0.000136728 0)
(0.98788 0.000114539 0)
(0.987885 9.51407e-05 0)
(0.987886 7.83767e-05 0)
(0.987884 6.41212e-05 0)
(0.987881 5.2194e-05 0)
(0.987877 4.22173e-05 0)
(0.987873 3.3905e-05 0)
(0.987869 2.70626e-05 0)
(0.987865 2.14341e-05 0)
(0.987862 1.6861e-05 0)
(0.987859 1.31618e-05 0)
(0.987857 1.01577e-05 0)
(0.987855 7.69654e-06 0)
(0.987854 5.62502e-06 0)
(0.987853 3.88137e-06 0)
(0.987852 2.33062e-06 0)
(0.987852 1.04574e-06 0)
(0.987853 -3.19689e-07 0)
(1.00551 0.0378603 0)
(1.03498 0.0950181 0)
(1.07515 0.124513 0)
(1.10269 0.12916 0)
(1.1177 0.120079 0)
(1.1235 0.101334 0)
(1.12029 0.0795525 0)
(1.11351 0.0587131 0)
(1.10513 0.0417959 0)
(1.09701 0.0291488 0)
(1.08981 0.0199799 0)
(1.08394 0.0136289 0)
(1.07934 0.0093884 0)
(1.07578 0.00661497 0)
(1.073 0.0048094 0)
(1.07079 0.00368564 0)
(1.06897 0.00309383 0)
(1.06733 0.0029517 0)
(1.06568 0.00323414 0)
(1.06385 0.00394121 0)
(1.06157 0.00521403 0)
(1.05852 0.00722487 0)
(1.05421 0.00997662 0)
(1.0481 0.0132196 0)
(1.03996 0.0161405 7.00313e-34)
(1.03048 0.0178471 -7.01625e-34)
(1.02076 0.0176945 0)
(1.01217 0.0152012 0)
(1.00617 0.0103791 0)
(1.00378 0.00445252 0)
(1.00412 -0.000131394 0)
(1.00498 -0.00320314 0)
(1.00548 -0.00577125 0)
(1.00614 -0.00846899 0)
(1.0079 -0.0107532 0)
(1.01123 -0.0121946 0)
(1.01605 -0.0128126 0)
(1.02206 -0.0126376 0)
(1.02869 -0.0117962 0)
(1.03538 -0.0104105 0)
(1.0416 -0.0087485 0)
(1.04704 -0.00707291 0)
(1.05159 -0.0055337 0)
(1.05526 -0.00417141 0)
(1.05816 -0.00302781 0)
(1.0604 -0.00211498 0)
(1.06212 -0.00141821 0)
(1.06341 -0.000908541 0)
(1.06438 -0.000548895 0)
(1.0651 -0.000302838 0)
(1.06564 -0.000139123 0)
(1.06603 -3.41462e-05 0)
(1.06631 2.97244e-05 0)
(1.06651 6.55937e-05 0)
(1.06666 8.3384e-05 0)
(1.06676 8.9104e-05 0)
(1.06684 8.75947e-05 0)
(1.06689 8.17114e-05 0)
(1.06693 7.36816e-05 0)
(1.06695 6.48609e-05 0)
(1.06697 5.60523e-05 0)
(1.06698 4.77535e-05 0)
(1.06698 4.01166e-05 0)
(1.06699 3.32779e-05 0)
(1.06699 2.72984e-05 0)
(1.06699 2.21406e-05 0)
(1.06699 1.78101e-05 0)
(1.06699 1.41518e-05 0)
(1.06699 1.1089e-05 0)
(1.06699 8.45594e-06 0)
(1.06699 6.19294e-06 0)
(1.06699 4.20963e-06 0)
(1.06699 2.44342e-06 0)
(1.06699 8.84352e-07 0)
(1.06699 -7.79913e-07 0)
(1.00291 0.0233383 0)
(1.01946 0.0656087 0)
(1.04849 0.0935279 0)
(1.07613 0.10503 0)
(1.09683 0.103926 0)
(1.11012 0.0945063 0)
(1.11704 0.0797873 0)
(1.11775 0.0627512 0)
(1.11586 0.0470476 0)
(1.1123 0.0345763 0)
(1.10838 0.0248937 0)
(1.1047 0.0176994 0)
(1.10157 0.0126876 0)
(1.09907 0.00935371 0)
(1.09702 0.00705334 0)
(1.09536 0.00552652 0)
(1.09403 0.00466092 0)
(1.09288 0.00437379 0)
(1.09183 0.00468211 0)
(1.09076 0.00566616 0)
(1.08941 0.00753719 0)
(1.08744 0.0105689 0)
(1.08426 0.0149044 0)
(1.07904 0.0202638 0)
(1.07152 0.02482 0)
(1.06408 0.0269211 0)
(1.05886 0.0255424 0)
(1.05723 0.0206385 0)
(1.06063 0.0121958 0)
(1.0687 0.00314107 0)
(1.07627 -0.00162117 0)
(1.07798 -0.00302962 0)
(1.07412 -0.00443015 0)
(1.06647 -0.0072315 0)
(1.05885 -0.0108661 0)
(1.05358 -0.0142519 0)
(1.05159 -0.0167029 0)
(1.05258 -0.018013 0)
(1.05618 -0.0179971 0)
(1.06112 -0.0168034 0)
(1.06653 -0.0147114 0)
(1.07168 -0.0122157 0)
(1.07609 -0.00974333 0)
(1.0797 -0.00751676 0)
(1.08256 -0.00564714 0)
(1.08479 -0.0041598 0)
(1.0865 -0.00300759 0)
(1.08781 -0.00213106 0)
(1.0888 -0.00148231 0)
(1.08954 -0.00100762 0)
(1.0901 -0.000664974 0)
(1.09052 -0.00042223 0)
(1.09083 -0.000254619 0)
(1.09106 -0.00014176 0)
(1.09123 -6.7571e-05 0)
(1.09135 -2.02769e-05 0)
(1.09144 8.58613e-06 0)
(1.09151 2.51344e-05 0)
(1.09156 3.3435e-05 0)
(1.09159 3.63908e-05 0)
(1.09161 3.60739e-05 0)
(1.09163 3.38378e-05 0)
(1.09164 3.0518e-05 0)
(1.09165 2.67293e-05 0)
(1.09166 2.2902e-05 0)
(1.09166 1.92733e-05 0)
(1.09167 1.59522e-05 0)
(1.09167 1.29821e-05 0)
(1.09167 1.03339e-05 0)
(1.09167 7.95181e-06 0)
(1.09167 5.8015e-06 0)
(1.09167 3.86256e-06 0)
(1.09167 2.07359e-06 0)
(1.09167 4.31001e-07 0)
(1.09167 -1.35728e-06 0)
(1.00165 0.0157889 0)
(1.01143 0.0464586 0)
(1.03102 0.0699751 0)
(1.05302 0.0827982 0)
(1.07239 0.0859325 0)
(1.08763 0.0816679 0)
(1.09858 0.0722047 0)
(1.10495 0.0600175 0)
(1.10763 0.0473821 0)
(1.10797 0.036359 0)
(1.10712 0.0273139 0)
(1.10588 0.0202461 0)
(1.10442 0.0150187 0)
(1.10308 0.0112088 0)
(1.10197 0.00846174 0)
(1.10105 0.00659405 0)
(1.10043 0.00554053 0)
(1.10001 0.0051593 0)
(1.09976 0.00538612 0)
(1.09966 0.00643828 0)
(1.09961 0.00864888 0)
(1.09933 0.0124989 0)
(1.09825 0.0183881 0)
(1.09494 0.025933 0)
(1.09095 0.0309874 0)
(1.09028 0.0298136 0)
(1.09706 0.0240379 0)
(1.11319 0.0117184 0)
(1.13876 -0.00508629 0)
(1.16511 -0.0170663 0)
(1.17642 -0.0116294 0)
(1.17471 0.000182903 0)
(1.16347 0.00963823 0)
(1.14435 0.0115908 0)
(1.12217 0.00523532 0)
(1.10209 -0.00341199 0)
(1.08688 -0.0117277 0)
(1.07813 -0.0174208 0)
(1.07502 -0.0205666 0)
(1.07596 -0.0208233 0)
(1.07874 -0.019442 0)
(1.08222 -0.0166933 0)
(1.08565 -0.0135691 0)
(1.08857 -0.0106244 0)
(1.0909 -0.00809205 0)
(1.09271 -0.0060329 0)
(1.09411 -0.00442043 0)
(1.09517 -0.00319043 0)
(1.09597 -0.00227574 0)
(1.09658 -0.00160859 0)
(1.09704 -0.00112258 0)
(1.09738 -0.000768804 0)
(1.09764 -0.000516464 0)
(1.09784 -0.000339205 0)
(1.09799 -0.000215569 0)
(1.0981 -0.000130273 0)
(1.09818 -7.25465e-05 0)
(1.09824 -3.4476e-05 0)
(1.09829 -1.02315e-05 0)
(1.09832 4.53228e-06 0)
(1.09835 1.29165e-05 0)
(1.09836 1.70273e-05 0)
(1.09838 1.84209e-05 0)
(1.09839 1.80778e-05 0)
(1.0984 1.67433e-05 0)
(1.0984 1.49206e-05 0)
(1.0984 1.28847e-05 0)
(1.09841 1.08142e-05 0)
(1.09841 8.77438e-06 0)
(1.09841 6.80345e-06 0)
(1.09841 4.92022e-06 0)
(1.09841 3.15201e-06 0)
(1.09841 1.46067e-06 0)
(1.09841 -1.56587e-07 0)
(1.09841 -1.94163e-06 0)
(1.00103 0.0111817 0)
(1.00731 0.0335508 0)
(1.02098 0.0524801 0)
(1.03801 0.0646089 0)
(1.05466 0.0695157 0)
(1.06927 0.068289 0)
(1.08112 0.0624267 0)
(1.08982 0.0537225 0)
(1.0955 0.044048 0)
(1.09883 0.0349328 0)
(1.1006 0.0270496 0)
(1.10137 0.0205875 0)
(1.10157 0.0155503 0)
(1.10152 0.0117898 0)
(1.1014 0.00906069 0)
(1.10131 0.00705865 0)
(1.10135 0.00578104 0)
(1.1016 0.00513381 0)
(1.10218 0.00511039 0)
(1.1032 0.00593549 0)
(1.10476 0.00804148 0)
(1.10683 0.0121946 0)
(1.10894 0.0191619 0)
(1.11019 0.0285213 0)
(1.11327 0.0285285 0)
(1.12023 0.0190441 0)
(1.14151 0.00233001 0)
(1.16503 -0.0201529 0)
(1.19347 -0.0243883 0)
(1.18499 -0.0228536 -7.48416e-17)
(1.15901 -0.0073587 0)
(1.15154 0.0056619 0)
(1.16288 0.0156768 0)
(1.16649 0.0170584 0)
(1.16539 0.0254316 0)
(1.14911 0.0218848 0)
(1.12588 0.00850075 0)
(1.10684 -0.00616735 0)
(1.09541 -0.0160684 0)
(1.0906 -0.0208378 0)
(1.08972 -0.0210032 0)
(1.09053 -0.0192987 0)
(1.09216 -0.0161856 0)
(1.09388 -0.0128319 0)
(1.09531 -0.00984525 0)
(1.09643 -0.00739584 0)
(1.0973 -0.00546862 0)
(1.09796 -0.00399259 0)
(1.09846 -0.00288367 0)
(1.09884 -0.00206224 0)
(1.09913 -0.00145951 0)
(1.09935 -0.00102074 0)
(1.09952 -0.000705604 0)
(1.09965 -0.000482499 0)
(1.09975 -0.000324808 0)
(1.09983 -0.000213541 0)
(1.09989 -0.000135553 0)
(1.09993 -8.22522e-05 0)
(1.09996 -4.65616e-05 0)
(1.09999 -2.30078e-05 0)
(1.10001 -7.84682e-06 0)
(1.10003 1.51411e-06 0)
(1.10004 6.85113e-06 0)
(1.10005 9.48021e-06 0)
(1.10005 1.03492e-05 0)
(1.10006 1.0179e-05 0)
(1.10006 9.3833e-06 0)
(1.10007 8.2299e-06 0)
(1.10007 6.84372e-06 0)
(1.10007 5.33679e-06 0)
(1.10007 3.79061e-06 0)
(1.10007 2.26148e-06 0)
(1.10007 7.5863e-07 0)
(1.10007 -7.61813e-07 0)
(1.10007 -2.45799e-06 0)
(1.00073 0.00812099 0)
(1.00516 0.0245544 0)
(1.01518 0.0392424 0)
(1.02864 0.0497274 0)
(1.04283 0.0549667 0)
(1.05626 0.0553546 0)
(1.06805 0.0518345 0)
(1.07765 0.0457318 0)
(1.0849 0.038479 0)
(1.09008 0.0312672 0)
(1.09365 0.0247581 0)
(1.09603 0.0192484 0)
(1.09759 0.0148083 0)
(1.09863 0.0113569 0)
(1.09938 0.0087178 0)
(1.10002 0.00672543 0)
(1.10068 0.00530197 0)
(1.10155 0.00435479 0)
(1.10285 0.00387087 0)
(1.1049 0.00399991 0)
(1.10818 0.00522058 0)
(1.113 0.00859494 0)
(1.11931 0.0152412 0)
(1.12641 0.0240985 0)
(1.13014 0.0222422 1.21042e-32)
(1.12892 0.00416936 -1.21123e-32)
(1.13583 -0.0205525 0)
(1.11744 -0.0141911 0)
(0 0 0)
(0 0 0)
(0 0 0)
(0 0 0)
(0 0 0)
(0 0 0)
(1.13613 0.0167998 0)
(1.15165 0.0301143 0)
(1.14562 0.0272564 0)
(1.12918 0.0123745 0)
(1.11426 -0.00493182 0)
(1.10539 -0.0156108 0)
(1.1011 -0.0195856 0)
(1.09941 -0.0192325 0)
(1.09874 -0.0170028 0)
(1.09884 -0.0137952 0)
(1.09911 -0.0106576 0)
(1.09936 -0.00803809 0)
(1.09957 -0.00596387 0)
(1.09973 -0.00437192 0)
(1.09986 -0.00317477 0)
(1.09997 -0.0022869 0)
(1.10005 -0.00163434 0)
(1.10012 -0.00115788 0)
(1.10018 -0.000812644 0)
(1.10023 -0.000564544 0)
(1.10027 -0.000387419 0)
(1.1003 -0.000261632 0)
(1.10033 -0.000173327 0)
(1.10035 -0.000112218 0)
(1.10037 -7.00859e-05 0)
(1.10039 -4.14035e-05 0)
(1.1004 -2.22033e-05 0)
(1.10041 -9.69301e-06 0)
(1.10042 -1.93483e-06 0)
(1.10043 2.59938e-06 0)
(1.10043 5.00054e-06 0)
(1.10043 6.03406e-06 0)
(1.10044 6.18286e-06 0)
(1.10044 5.7315e-06 0)
(1.10044 4.88894e-06 0)
(1.10044 3.80628e-06 0)
(1.10045 2.59814e-06 0)
(1.10045 1.3375e-06 0)
(1.10045 5.38879e-08 0)
(1.10045 -1.30244e-06 0)
(1.10045 -2.83493e-06 0)
(1.00056 0.00588029 0)
(1.00395 0.0178356 0)
(1.01173 0.0288499 0)
(1.02272 0.0372897 0)
(1.03504 0.0420767 0)
(1.04734 0.0431673 0)
(1.05875 0.0411386 0)
(1.06864 0.0369482 0)
(1.0767 0.0316658 0)
(1.083 0.0261907 0)
(1.08775 0.0210913 0)
(1.09127 0.0166538 0)
(1.09385 0.0129718 0)
(1.09574 0.0100123 0)
(1.09719 0.00765672 0)
(1.09839 0.00577868 0)
(1.09949 0.00427408 0)
(1.10074 0.0029991 0)
(1.10242 0.00184905 0)
(1.10505 0.000745145 0)
(1.10953 4.16473e-05 0)
(1.11609 0.000843907 0)
(1.12556 0.00567733 0)
(1.131 0.0189466 0)
(1.12505 0.0254165 0)
(1.09021 0.00737309 5.19046e-18)
(0.885587 0.0127033 0)
(0 0 0)
(0 0 0)
(0 0 0)
(0 0 0)
(0 0 0)
(0 0 0)
(0 0 0)
(0 0 0)
(1.12731 0.013695 -1.53643e-17)
(1.14098 0.0283678 -2.64208e-18)
(1.13691 0.0233574 0)
(1.12673 0.00712133 0)
(1.11748 -0.00791934 0)
(1.11174 -0.0151982 0)
(1.10792 -0.0169475 0)
(1.10547 -0.0157894 0)
(1.10386 -0.0131993 0)
(1.10286 -0.010351 0)
(1.10216 -0.00784959 0)
(1.10165 -0.00583737 0)
(1.10128 -0.00428599 0)
(1.10102 -0.00311834 0)
(1.10083 -0.00225242 0)
(1.10071 -0.00161616 0)
(1.10062 -0.00115166 0)
(1.10056 -0.000814689 0)
(1.10053 -0.000571764 0)
(1.1005 -0.000397497 0)
(1.10049 -0.000273071 0)
(1.10049 -0.00018473 0)
(1.10049 -0.000122595 0)
(1.10049 -7.93149e-05 0)
(1.10049 -4.95267e-05 0)
(1.1005 -2.94292e-05 0)
(1.1005 -1.61341e-05 0)
(1.10051 -7.43404e-06 0)
(1.10051 -2.02687e-06 0)
(1.10051 1.17801e-06 0)
(1.10052 2.936e-06 0)
(1.10052 3.66194e-06 0)
(1.10052 3.65861e-06 0)
(1.10052 3.18625e-06 0)
(1.10052 2.42303e-06 0)
(1.10052 1.50202e-06 0)
(1.10052 4.88097e-07 0)
(1.10053 -5.6983e-07 0)
(1.10053 -1.7186e-06 0)
(1.10053 -3.03159e-06 0)
(1.00046 0.0041097 0)
(1.00324 0.012475 0)
(1.00967 0.0203405 0)
(1.01897 0.0265952 0)
(1.02991 0.0304577 0)
(1.04134 0.0316946 0)
(1.05233 0.0305997 0)
(1.06225 0.0278306 0)
(1.07073 0.0241579 0)
(1.07768 0.0202337 0)
(1.0832 0.0164912 0)
(1.08749 0.0131637 0)
(1.09078 0.0103379 0)
(1.09329 0.00800035 0)
(1.09523 0.00606883 0)
(1.09677 0.00443611 0)
(1.09806 0.00297315 0)
(1.09932 0.00146967 0)
(1.10078 -0.000350082 0)
(1.10294 -0.00292837 0)
(1.10648 -0.00566869 0)
(1.11112 -0.00697425 0)
(1.1188 -0.00316532 0)
(1.11326 0.0158737 0)
(1.10679 0.0362588 1.60338e-33)
(1.07971 0.013203 4.28525e-17)
(0 0 0)
(0 0 0)
(0 0 0)
(0 0 0)
(0 0 0)
(0 0 0)
(0 0 0)
(0 0 0)
(0 0 0)
(0 0 0)
(1.12564 0.0161388 0)
(1.13391 0.0243977 0)
(1.13002 0.0137192 0)
(1.12467 -0.000934277 0)
(1.1198 -0.0097808 0)
(1.11522 -0.0130413 0)
(1.11147 -0.0129605 0)
(1.10853 -0.0112013 0)
(1.10636 -0.00892599 0)
(1.10475 -0.00681144 0)
(1.10356 -0.00507678 0)
(1.10268 -0.00373014 0)
(1.10204 -0.00271526 0)
(1.10158 -0.00196324 0)
(1.10125 -0.00141113 0)
(1.10102 -0.00100843 0)
(1.10086 -0.000716151 0)
(1.10074 -0.000505157 0)
(1.10066 -0.000353458 0)
(1.10061 -0.0002449 0)
(1.10058 -0.000167587 0)
(1.10055 -0.000112941 0)
(1.10054 -7.46067e-05 0)
(1.10053 -4.79648e-05 0)
(1.10053 -2.9718e-05 0)
(1.10053 -1.73954e-05 0)
(1.10053 -9.29115e-06 0)
(1.10053 -4.10861e-06 0)
(1.10053 -9.69485e-07 0)
(1.10053 8.62441e-07 0)
(1.10053 1.77376e-06 0)
(1.10054 1.98952e-06 0)
(1.10054 1.74855e-06 0)
(1.10054 1.23458e-06 0)
(1.10054 5.61427e-07 0)
(1.10054 -2.07045e-07 0)
(1.10054 -1.04479e-06 0)
(1.10054 -1.97456e-06 0)
(1.10054 -3.03122e-06 0)
(1.00041 0.00261554 0)
(1.00282 0.00793101 0)
(1.00844 0.0130026 0)
(1.01671 0.0171301 0)
(1.0267 0.0197855 0)
(1.03745 0.0207845 0)
(1.04813 0.0202555 0)
(1.058 0.018584 0)
(1.06668 0.0162686 0)
(1.074 0.0137399 0)
(1.07999 0.0112882 0)
(1.08477 0.00907465 0)
(1.08853 0.00716199 0)
(1.09144 0.00554406 0)
(1.09367 0.00416461 0)
(1.09536 0.00293631 0)
(1.0966 0.00173268 0)
(1.09751 0.000321064 0)
(1.09809 -0.00167903 0)
(1.09855 -0.00481335 0)
(1.09892 -0.0088381 0)
(1.10103 -0.0122137 0)
(1.10046 -0.00717817 0)
(1.07547 0.0175525 0)
(1.06576 0.0371043 0)
(1.01054 0.0302673 0)
(0 0 0)
(0 0 0)
(0 0 0)
(0 0 0)
(0 0 0)
(0 0 0)
(0 0 0)
(0 0 0)
(0 0 0)
(0 0 0)
(1.11449 0.00521611 0)
(1.12605 0.0169761 0)
(1.12721 0.0126073 0)
(1.12738 0.00218874 0)
(1.1247 -0.00529045 0)
(1.12067 -0.00854893 0)
(1.11611 -0.00906901 0)
(1.1123 -0.00808445 0)
(1.10922 -0.0065215 0)
(1.10688 -0.00501203 0)
(1.10511 -0.00374513 0)
(1.10381 -0.00275358 0)
(1.10287 -0.00200455 0)
(1.10218 -0.00144954 0)
(1.10169 -0.00104255 0)
(1.10133 -0.000745912 0)
(1.10108 -0.000530738 0)
(1.10091 -0.000375316 0)
(1.10078 -0.000263509 0)
(1.1007 -0.000183373 0)
(1.10064 -0.000126199 0)
(1.1006 -8.56387e-05 0)
(1.10057 -5.7095e-05 0)
(1.10056 -3.72078e-05 0)
(1.10055 -2.35346e-05 0)
(1.10054 -1.42702e-05 0)
(1.10054 -8.09145e-06 0)
(1.10054 -4.0751e-06 0)
(1.10054 -1.58276e-06 0)
(1.10054 -1.29242e-07 0)
(1.10054 5.99555e-07 0)
(1.10054 7.98571e-07 0)
(1.10054 6.39501e-07 0)
(1.10054 2.63351e-07 0)
(1.10054 -2.34405e-07 0)
(1.10054 -8.02801e-07 0)
(1.10054 -1.41669e-06 0)
(1.10054 -2.07433e-06 0)
(1.10054 -2.86101e-06 0)
(1.00038 0.0012723 0)
(1.00259 0.00386236 0)
(1.00778 0.00634846 0)
(1.01549 0.00839997 0)
(1.02493 0.00974759 0)
(1.03527 0.0102902 0)
(1.04574 0.0100807 0)
(1.05556 0.00929531 0)
(1.06433 0.00817608 0)
(1.07185 0.00693768 0)
(1.07809 0.00572549 0)
(1.08314 0.00462106 0)
(1.08716 0.00365675 0)
(1.09028 0.00282988 0)
(1.09266 0.00211021 0)
(1.09438 0.00144704 0)
(1.0955 0.000751605 0)
(1.09592 -8.22068e-05 0)
(1.09557 -0.00135198 0)
(1.0938 -0.00335869 0)
(1.08964 -0.00628488 0)
(1.08167 -0.00759687 0)
(1.05945 -0.00158137 0)
(1.05386 0.0187598 0)
(0.968536 0.0252192 4.48923e-48)
(0 0 0)
(0 0 0)
(0 0 0)
(0 0 0)
(0 0 0)
(0 0 0)
(0 0 0)
(0 0 0)
(0 0 0)
(0 0 0)
(0 0 0)
(0 0 0)
(1.12386 0.00824514 0)
(1.12609 0.00726006 0)
(1.12806 0.00208184 0)
(1.12724 -0.00213036 0)
(1.12384 -0.0041628 0)
(1.11905 -0.00461674 0)
(1.11468 -0.00420457 0)
(1.11107 -0.00343219 0)
(1.10826 -0.00264817 0)
(1.10613 -0.00198245 0)
(1.10455 -0.00145897 0)
(1.1034 -0.00106216 0)
(1.10257 -0.000767963 0)
(1.10197 -0.000552277 0)
(1.10154 -0.000395129 0)
(1.10123 -0.000281205 0)
(1.10101 -0.000198942 0)
(1.10086 -0.000139775 0)
(1.10075 -9.73454e-05 0)
(1.10068 -6.70512e-05 0)
(1.10063 -4.55292e-05 0)
(1.10059 -3.03813e-05 0)
(1.10057 -1.98566e-05 0)
(1.10056 -1.26307e-05 0)
(1.10055 -7.75163e-06 0)
(1.10054 -4.48165e-06 0)
(1.10054 -2.37244e-06 0)
(1.10054 -1.07461e-06 0)
(1.10054 -3.88159e-07 0)
(1.10054 -6.90783e-08 0)
(1.10054 -6.2559e-08 0)
(1.10054 -2.51147e-07 0)
(1.10054 -5.37366e-07 0)
(1.10054 -8.81995e-07 0)
(1.10054 -1.25825e-06 0)
(1.10054 -1.64914e-06 0)
(1.10054 -2.10448e-06 0)
(1.10054 -2.63021e-06 0)
(1.00036 1.66545e-05 0)
(1.00246 1.6177e-05 0)
(1.00752 1.55392e-05 0)
(1.01508 1.23858e-05 0)
(1.02436 7.91081e-06 0)
(1.03457 3.01992e-06 0)
(1.04496 -1.07588e-06 0)
(1.05476 -3.94757e-06 0)
(1.06356 -5.52047e-06 0)
(1.07114 -6.01135e-06 0)
(1.07746 -5.60936e-06 0)
(1.0826 -4.48327e-06 0)
(1.0867 -2.81164e-06 0)
(1.0899 -6.07732e-07 0)
(1.09232 2.01474e-06 0)
(1.09404 5.52914e-06 0)
(1.09512 1.04344e-05 0)
(1.09535 1.59746e-05 0)
(1.09471 2.40522e-05 0)
(1.09245 3.99117e-05 0)
(1.08802 1.59827e-05 0)
(1.07926 -2.36477e-05 0)
(1.06004 3.86316e-05 0)
(1.06724 -1.39903e-05 0)
(1.01856 -0.000235969 0)
(0 0 0)
(0 0 0)
(0 0 0)
(0 0 0)
(0 0 0)
(0 0 0)
(0 0 0)
(0 0 0)
(0 0 0)
(0 0 0)
(0 0 0)
(0 0 0)
(1.12143 -7.52359e-05 0)
(1.12483 -4.49477e-05 0)
(1.12787 1.62803e-05 0)
(1.12766 4.6917e-05 0)
(1.12483 5.145e-05 0)
(1.12003 3.59058e-05 0)
(1.11547 2.04222e-05 0)
(1.11171 7.58049e-06 0)
(1.10873 4.1889e-06 0)
(1.10647 3.96828e-06 0)
(1.10481 3.55392e-06 0)
(1.10359 3.18411e-06 0)
(1.1027 2.85444e-06 0)
(1.10206 2.61613e-06 0)
(1.10161 2.44989e-06 0)
(1.10128 2.26864e-06 0)
(1.10105 2.05041e-06 0)
(1.10089 1.82837e-06 0)
(1.10077 1.63155e-06 0)
(1.10069 1.48657e-06 0)
(1.10064 1.34955e-06 0)
(1.1006 1.18788e-06 0)
(1.10058 9.75209e-07 0)
(1.10056 7.46937e-07 0)
(1.10055 5.28047e-07 0)
(1.10054 3.52309e-07 0)
(1.10054 1.87868e-07 0)
(1.10054 9.56309e-09 0)
(1.10054 -1.87909e-07 0)
(1.10054 -4.51388e-07 0)
(1.10054 -7.31001e-07 0)
(1.10054 -1.00041e-06 0)
(1.10054 -1.24186e-06 0)
(1.10054 -1.45537e-06 0)
(1.10054 -1.65199e-06 0)
(1.10054 -1.84506e-06 0)
(1.10054 -2.04684e-06 0)
(1.10054 -2.23772e-06 0)
(1.00037 -0.00123567 0)
(1.00259 -0.00383268 0)
(1.00778 -0.00631744 0)
(1.01549 -0.00837552 0)
(1.02494 -0.00973168 0)
(1.03527 -0.010284 0)
(1.04574 -0.0100827 0)
(1.05556 -0.00930309 0)
(1.06433 -0.00818705 0)
(1.07185 -0.00694966 0)
(1.07809 -0.00573671 0)
(1.08314 -0.00463016 0)
(1.08716 -0.00366254 0)
(1.09029 -0.0028317 0)
(1.09267 -0.00210674 0)
(1.09439 -0.00143792 0)
(1.09551 -0.000733601 0)
(1.09594 0.000109588 0)
(1.0956 0.00139477 0)
(1.09383 0.0034279 0)
(1.08972 0.00640469 0)
(1.08171 0.00773413 0)
(1.0595 0.00170381 0)
(1.05311 -0.0188704 0)
(0.968446 -0.0252973 0)
(0 0 0)
(0 0 0)
(0 0 0)
(0 0 0)
(0 0 0)
(0 0 0)
(0 0 0)
(0 0 0)
(0 0 0)
(0 0 0)
(0 0 0)
(0 0 0)
(1.12378 -0.00831613 0)
(1.12591 -0.00728332 0)
(1.12779 -0.00202528 0)
(1.12707 0.00219226 0)
(1.12371 0.00421786 0)
(1.11898 0.00465875 0)
(1.11465 0.00422425 0)
(1.11105 0.00343883 0)
(1.10824 0.00265401 0)
(1.10612 0.00198791 0)
(1.10455 0.00146412 0)
(1.1034 0.00106716 0)
(1.10257 0.000772857 0)
(1.10197 0.000557021 0)
(1.10154 0.000399753 0)
(1.10123 0.000285571 0)
(1.10101 0.000202948 0)
(1.10086 0.000143373 0)
(1.10075 0.000100579 0)
(1.10068 6.99948e-05 0)
(1.10063 4.81938e-05 0)
(1.10059 3.27193e-05 0)
(1.10057 2.17645e-05 0)
(1.10056 1.40979e-05 0)
(1.10055 8.77998e-06 0)
(1.10054 5.16986e-06 0)
(1.10054 2.7236e-06 0)
(1.10054 1.09563e-06 0)
(1.10054 -3.97111e-08 0)
(1.10054 -8.5357e-07 0)
(1.10054 -1.40907e-06 0)
(1.10054 -1.74788e-06 0)
(1.10054 -1.9344e-06 0)
(1.10054 -2.00977e-06 0)
(1.10054 -2.01868e-06 0)
(1.10054 -2.00583e-06 0)
(1.10054 -1.9633e-06 0)
(1.10054 -1.82607e-06 0)
(1.0004 -0.00256657 0)
(1.00282 -0.0079133 0)
(1.00844 -0.0129743 0)
(1.01672 -0.0171078 0)
(1.0267 -0.0197702 0)
(1.03746 -0.0207784 0)
(1.04813 -0.0202574 0)
(1.058 -0.0185915 0)
(1.06668 -0.0162793 0)
(1.07401 -0.0137517 0)
(1.07999 -0.0112994 0)
(1.08478 -0.00908386 0)
(1.08853 -0.00716849 0)
(1.09144 -0.00554682 0)
(1.09367 -0.00416355 0)
(1.09537 -0.00293001 0)
(1.09662 -0.00172127 0)
(1.09753 -0.00030277 0)
(1.09813 0.00170679 0)
(1.0986 0.00484797 0)
(1.09904 0.00885496 0)
(1.10123 0.012261 0)
(1.10081 0.0073226 0)
(1.07567 -0.0176719 0)
(1.07072 -0.0391237 0)
(1.01307 -0.0312078 0)
(0 0 0)
(0 0 0)
(0 0 0)
(0 0 0)
(0 0 0)
(0 0 0)
(0 0 0)
(0 0 0)
(0 0 0)
(0 0 0)
(1.11449 -0.00518678 0)
(1.12595 -0.0168928 0)
(1.12708 -0.0125462 0)
(1.12725 -0.00219313 0)
(1.12461 0.00526753 0)
(1.1206 0.00853269 0)
(1.11608 0.00906654 0)
(1.11229 0.00808369 0)
(1.10921 0.00651856 0)
(1.10687 0.00501208 0)
(1.10511 0.00374689 0)
(1.10381 0.00275652 0)
(1.10286 0.00200817 0)
(1.10218 0.00145352 0)
(1.10169 0.00104671 0)
(1.10133 0.000750117 0)
(1.10108 0.000534813 0)
(1.10091 0.000379143 0)
(1.10078 0.00026699 0)
(1.1007 0.00018654 0)
(1.10064 0.000129062 0)
(1.1006 8.8212e-05 0)
(1.10057 5.93064e-05 0)
(1.10056 3.90153e-05 0)
(1.10055 2.49031e-05 0)
(1.10054 1.52431e-05 0)
(1.10054 8.70553e-06 0)
(1.10054 4.36213e-06 0)
(1.10054 1.5051e-06 0)
(1.10054 -3.71189e-07 0)
(1.10054 -1.57812e-06 0)
(1.10054 -2.27732e-06 0)
(1.10054 -2.6157e-06 0)
(1.10054 -2.68691e-06 0)
(1.10054 -2.59434e-06 0)
(1.10054 -2.40616e-06 0)
(1.10054 -2.17716e-06 0)
(1.10054 -1.89677e-06 0)
(1.10054 -1.47436e-06 0)
(1.00046 -0.00406002 0)
(1.00324 -0.0124606 0)
(1.00967 -0.0203139 0)
(1.01897 -0.0265739 0)
(1.02992 -0.030443 0)
(1.04135 -0.0316887 0)
(1.05234 -0.0306013 0)
(1.06226 -0.0278377 0)
(1.07074 -0.0241681 0)
(1.07768 -0.020245 0)
(1.0832 -0.0165021 0)
(1.08749 -0.013173 0)
(1.09078 -0.0103451 0)
(1.0933 -0.00800447 0)
(1.09524 -0.00607046 0)
(1.09678 -0.00443377 0)
(1.09808 -0.00296779 0)
(1.09935 -0.00146133 0)
(1.10082 0.000360605 0)
(1.103 0.00293529 0)
(1.10658 0.0056476 0)
(1.11127 0.00692443 0)
(1.11906 0.00317169 0)
(1.11346 -0.015974 0)
(1.1075 -0.0365204 0)
(1.07993 -0.0120964 -3.7429e-17)
(0 0 0)
(0 0 0)
(0 0 0)
(0 0 0)
(0 0 0)
(0 0 0)
(0 0 0)
(0 0 0)
(0 0 0)
(0 0 0)
(1.12561 -0.0160774 -7.45348e-19)
(1.13384 -0.0242806 0)
(1.12995 -0.0136301 0)
(1.12466 0.00092202 0)
(1.11979 0.00975854 0)
(1.11524 0.0130083 0)
(1.11147 0.0129425 0)
(1.10854 0.0112023 0)
(1.10636 0.00892494 0)
(1.10475 0.00681301 0)
(1.10356 0.00507962 0)
(1.10268 0.0037335 0)
(1.10204 0.00271897 0)
(1.10158 0.00196702 0)
(1.10125 0.00141506 0)
(1.10102 0.00101234 0)
(1.10085 0.000719985 0)
(1.10074 0.000508792 0)
(1.10066 0.000356834 0)
(1.10061 0.000247968 0)
(1.10057 0.000170347 0)
(1.10055 0.000115354 0)
(1.10054 7.66371e-05 0)
(1.10053 4.96029e-05 0)
(1.10053 3.0951e-05 0)
(1.10053 1.82699e-05 0)
(1.10053 9.79859e-06 0)
(1.10053 4.27168e-06 0)
(1.10053 7.52533e-07 0)
(1.10053 -1.47452e-06 0)
(1.10053 -2.81655e-06 0)
(1.10054 -3.47331e-06 0)
(1.10054 -3.68476e-06 0)
(1.10054 -3.58922e-06 0)
(1.10054 -3.30741e-06 0)
(1.10054 -2.88973e-06 0)
(1.10054 -2.40119e-06 0)
(1.10054 -1.82538e-06 0)
(1.10054 -1.09691e-06 0)
(1.00057 -0.00583396 0)
(1.00396 -0.0178224 0)
(1.01174 -0.0288246 0)
(1.02273 -0.0372702 0)
(1.03505 -0.0420637 0)
(1.04735 -0.0431621 0)
(1.05876 -0.0411401 0)
(1.06865 -0.0369547 0)
(1.07671 -0.0316752 0)
(1.083 -0.0262012 0)
(1.08776 -0.0211016 0)
(1.09128 -0.016663 0)
(1.09385 -0.0129792 0)
(1.09575 -0.010018 0)
(1.0972 -0.00766002 0)
(1.0984 -0.0057808 0)
(1.09951 -0.00427394 0)
(1.10076 -0.00299943 0)
(1.10245 -0.0018527 0)
(1.10509 -0.000759303 0)
(1.10958 -8.8606e-05 0)
(1.11613 -0.000932951 0)
(1.12563 -0.00577825 0)
(1.13103 -0.0189159 0)
(1.12479 -0.0255433 0)
(1.08967 -0.00651668 -5.19461e-18)
(0.885612 -0.0118566 2.05917e-17)
(0 0 0)
(0 0 0)
(0 0 0)
(0 0 0)
(0 0 0)
(0 0 0)
(0 0 0)
(0 0 0)
(1.12731 -0.0136863 5.02986e-17)
(1.14095 -0.0282443 2.64111e-18)
(1.1369 -0.0232124 0)
(1.12674 -0.00709377 0)
(1.11754 0.00787167 0)
(1.11179 0.0151439 0)
(1.10795 0.0169293 0)
(1.10549 0.0157905 0)
(1.10387 0.0132091 0)
(1.10286 0.0103588 0)
(1.10216 0.00785506 0)
(1.10165 0.00584196 0)
(1.10128 0.00429015 0)
(1.10102 0.00312227 0)
(1.10083 0.00225631 0)
(1.1007 0.00161998 0)
(1.10062 0.00115539 0)
(1.10056 0.000818324 0)
(1.10052 0.000575231 0)
(1.1005 0.000400746 0)
(1.10049 0.000276033 0)
(1.10049 0.00018734 0)
(1.10049 0.000124804 0)
(1.10049 8.11257e-05 0)
(1.10049 5.09368e-05 0)
(1.1005 3.05072e-05 0)
(1.1005 1.68762e-05 0)
(1.1005 7.82333e-06 0)
(1.10051 2.03639e-06 0)
(1.10051 -1.55691e-06 0)
(1.10051 -3.70532e-06 0)
(1.10052 -4.79315e-06 0)
(1.10052 -5.1582e-06 0)
(1.10052 -5.05536e-06 0)
(1.10052 -4.66124e-06 0)
(1.10052 -4.10476e-06 0)
(1.10052 -3.43044e-06 0)
(1.10052 -2.69605e-06 0)
(1.10052 -1.86212e-06 0)
(1.10052 -8.38441e-07 0)
(1.00074 -0.00807943 0)
(1.00516 -0.0245412 0)
(1.01519 -0.0392197 0)
(1.02865 -0.0497103 0)
(1.04285 -0.0549555 0)
(1.05627 -0.05535 0)
(1.06807 -0.0518359 0)
(1.07766 -0.0457375 0)
(1.08491 -0.0384875 0)
(1.09009 -0.0312766 0)
(1.09366 -0.0247676 0)
(1.09604 -0.0192571 0)
(1.0976 -0.0148159 0)
(1.09864 -0.0113631 0)
(1.09939 -0.00872265 0)