/*--------------------------------*- C++ -*----------------------------------*\
| =========                 |                                                 |
| \\      /  F ield         | OpenFOAM: The Open Source CFD Toolbox           |
|  \\    /   O peration     | Version:  2206                                  |
|   \\  /    A nd           | Website:  www.openfoam.com                      |
|    \\/     M anipulation  |                                                 |
\*---------------------------------------------------------------------------*/
FoamFile
{
    version     2.0;
    format      ascii;
    arch        "LSB;label=32;scalar=64";
    class       surfaceVectorField;
    location    "0.2";
    object      Uf;
}
// * * * * * * * * * * * * * * * * * * * * * * * * * * * * * * * * * * * * * //

dimensions      [0 1 -1 0 0 0 0];

internalField   nonuniform List<vector> 
3650
(
(0.85981 0.0516415 0)
(0.902548 0.14019 0)
(0.705403 0.0819304 0)
(0.900875 0.154407 0)
(0.577318 0.0641067 0)
(0.846181 0.128085 0)
(0.482482 0.0346641 0)
(0.762094 0.0948366 0)
(0.418693 0.0161625 0)
(0.693334 0.0637884 0)
(0.379224 0.00741634 0)
(0.643941 0.0394694 0)
(0.35602 0.00311264 0)
(0.610483 0.0232038 0)
(0.343093 0.00103508 0)
(0.588311 0.0129277 0)
(0.336236 0.000121022 0)
(0.574398 0.00685682 0)
(0.332751 -0.000238177 0)
(0.566024 0.00348444 0)
(0.331079 -0.000366211 0)
(0.561049 0.00167265 0)
(0.330369 -0.00041045 0)
(0.558097 0.000709731 0)
(0.330178 -0.000438885 0)
(0.556344 0.000191929 0)
(0.330286 -0.000484086 0)
(0.5553 -0.000108673 0)
(0.33059 -0.0005515 0)
(0.554665 -0.000302992 0)
(0.331063 -0.00063993 0)
(0.554301 -0.000473491 0)
(0.331693 -0.00075264 0)
(0.554106 -0.00062939 0)
(0.332469 -0.000889674 0)
(0.554009 -0.000776598 0)
(0.333376 -0.00104774 0)
(0.553946 -0.000906841 0)
(0.334397 -0.00121833 0)
(0.553843 -0.00102081 0)
(0.33549 -0.00138702 0)
(0.553609 -0.00109262 0)
(0.336595 -0.00153429 0)
(0.553134 -0.00110483 0)
(0.337673 -0.00165162 0)
(0.552293 -0.00107898 0)
(0.338649 -0.00173503 0)
(0.550979 -0.000976426 0)
(0.339512 -0.0017668 0)
(0.549181 -0.000863126 0)
(0.340299 -0.00171943 0)
(0.547023 -0.000788181 0)
(0.341069 -0.00156594 0)
(0.544741 -0.000769726 0)
(0.341861 -0.00129197 0)
(0.542714 -0.00079252 0)
(0.342667 -0.000891178 0)
(0.541297 -0.000806852 0)
(0.343401 -0.000379436 0)
(0.540704 -0.000733745 0)
(0.343891 0.000179908 0)
(0.540919 -0.000490589 0)
(0.344061 0.000728399 0)
(0.541605 -0.000169991 0)
(0.343872 0.00120799 0)
(0.54274 0.000188892 0)
(0.343353 0.00156381 0)
(0.544179 0.000518056 0)
(0.342554 0.0017809 0)
(0.545792 0.000800748 0)
(0.341518 0.00186695 0)
(0.547439 0.00103621 0)
(0.340313 0.00184479 0)
(0.548987 0.00120546 0)
(0.339019 0.00174118 0)
(0.550323 0.00129363 0)
(0.337706 0.00158692 0)
(0.55142 0.00131331 0)
(0.33643 0.00140734 0)
(0.552258 0.00127652 0)
(0.335225 0.00121613 0)
(0.552843 0.00120495 0)
(0.334095 0.00102682 0)
(0.5532 0.0011299 0)
(0.333064 0.000855421 0)
(0.553367 0.00103122 0)
(0.332142 0.000707083 0)
(0.553383 0.000921984 0)
(0.33133 0.000580068 0)
(0.553292 0.000812927 0)
(0.330621 0.000471972 0)
(0.553128 0.000708499 0)
(0.33001 0.00038187 0)
(0.552922 0.000611162 0)
(0.329489 0.000308254 0)
(0.552698 0.00052047 0)
(0.329051 0.000247277 0)
(0.552478 0.000438793 0)
(0.328686 0.000197091 0)
(0.55227 0.000365241 0)
(0.328385 0.000156457 0)
(0.55208 0.000301172 0)
(0.328138 0.000123753 0)
(0.551911 0.000246638 0)
(0.327937 9.75865e-05 0)
(0.551765 0.000201012 0)
(0.327774 7.68155e-05 0)
(0.551639 0.000162936 0)
(0.327643 6.04193e-05 0)
(0.551533 0.000131558 0)
(0.327537 4.7428e-05 0)
(0.551444 0.00010573 0)
(0.327452 3.71726e-05 0)
(0.551371 8.47674e-05 0)
(0.327385 2.90446e-05 0)
(0.551311 6.77327e-05 0)
(0.327331 2.26068e-05 0)
(0.551261 5.39766e-05 0)
(0.327288 1.75246e-05 0)
(0.551221 4.27576e-05 0)
(0.327254 1.3528e-05 0)
(0.551188 3.38132e-05 0)
(0.327228 1.04117e-05 0)
(0.551162 2.66241e-05 0)
(0.327207 8.00157e-06 0)
(0.551141 2.09434e-05 0)
(0.32719 6.12394e-06 0)
(0.551124 1.6385e-05 0)
(0.327178 4.65707e-06 0)
(0.55111 1.28089e-05 0)
(0.327168 3.51951e-06 0)
(0.5511 9.90704e-06 0)
(0.32716 2.64737e-06 0)
(0.551092 7.65263e-06 0)
(0.327154 1.98413e-06 0)
(0.551085 5.84515e-06 0)
(0.32715 1.47371e-06 0)
(0.55108 4.47069e-06 0)
(0.327146 1.06774e-06 0)
(0.551077 3.34499e-06 0)
(0.327144 7.36602e-07 0)
(0.551074 2.46103e-06 0)
(0.327142 4.62085e-07 0)
(0.551072 1.68618e-06 0)
(0.327141 2.43248e-07 0)
(0.55107 1.05836e-06 0)
(0.327141 3.21187e-08 0)
(0.55107 5.39046e-07 0)
(0.55107 -4.82436e-08 0)
(1.05114 0.152593 0)
(1.01333 0.0890475 0)
(1.04705 0.176037 0)
(1.05501 0.158499 0)
(1.01417 0.155962 0)
(1.06547 0.160967 0)
(0.967634 0.124379 0)
(1.05074 0.141372 0)
(0.917947 0.0884558 0)
(1.02172 0.113476 0)
(0.874483 0.0567288 0)
(0.990001 0.0829331 0)
(0.841622 0.0339518 0)
(0.961875 0.0560646 0)
(0.818868 0.0193015 0)
(0.938741 0.0356821 0)
(0.803829 0.0105768 0)
(0.921361 0.0218955 0)
(0.794141 0.00564182 0)
(0.909063 0.0131726 0)
(0.787969 0.00292584 0)
(0.900584 0.00784473 0)
(0.784018 0.001448 0)
(0.894795 0.00466112 0)
(0.781417 0.000632521 0)
(0.890829 0.0027925 0)
(0.77962 0.00015229 0)
(0.888032 0.00168889 0)
(0.778304 -0.000162833 0)
(0.885963 0.00101325 0)
(0.777249 -0.000392141 0)
(0.88435 0.000581437 0)
(0.776306 -0.000566654 0)
(0.882976 0.000313983 0)
(0.775347 -0.000691981 0)
(0.881669 0.000182496 0)
(0.774249 -0.000760742 0)
(0.880276 0.000191144 0)
(0.772874 -0.000752716 0)
(0.878641 0.000354022 0)
(0.771069 -0.000638775 0)
(0.876585 0.000712931 0)
(0.76866 -0.000403346 0)
(0.873881 0.00130382 0)
(0.765469 -7.89886e-05 0)
(0.870264 0.00211204 0)
(0.761447 0.000240844 0)
(0.865509 0.00304483 0)
(0.756717 0.000436227 0)
(0.859571 0.00386638 0)
(0.751618 0.000411235 0)
(0.852751 0.00431031 0)
(0.746685 0.000137909 0)
(0.845582 0.0041625 0)
(0.742552 -0.000316612 0)
(0.838896 0.00334031 0)
(0.73982 -0.000773358 0)
(0.83365 0.00192578 0)
(0.738766 -0.00101648 0)
(0.830587 0.000319709 0)
(0.739174 -0.00103872 0)
(0.829771 -0.000899328 0)
(0.740763 -0.000928382 0)
(0.83049 -0.00175881 0)
(0.743358 -0.000725223 0)
(0.832604 -0.00240646 0)
(0.746766 -0.000470337 0)
(0.835917 -0.00288969 0)
(0.750703 -0.000165112 0)
(0.840243 -0.00313593 0)
(0.754833 0.000166925 0)
(0.845281 -0.00309396 0)
(0.758857 0.000474984 0)
(0.850656 -0.00281729 0)
(0.76255 0.000722268 0)
(0.855991 -0.0023998 0)
(0.765788 0.000903226 0)
(0.861011 -0.00192392 0)
(0.768496 0.0010232 0)
(0.865508 -0.00143109 0)
(0.770659 0.00108364 0)
(0.869352 -0.00095881 0)
(0.772331 0.00109152 0)
(0.872513 -0.000541806 0)
(0.773566 0.00106001 0)
(0.875029 -0.000202992 0)
(0.774432 0.00100045 0)
(0.87697 5.59087e-05 0)
(0.775006 0.000922534 0)
(0.878421 0.000239045 0)
(0.775359 0.000834668 0)
(0.879475 0.000355281 0)
(0.775553 0.000740223 0)
(0.880221 0.000416893 0)
(0.775641 0.000643754 0)
(0.880734 0.000433116 0)
(0.775659 0.000551719 0)
(0.881079 0.000420704 0)
(0.775633 0.000466517 0)
(0.881304 0.000390901 0)
(0.775582 0.000390249 0)
(0.881443 0.000352495 0)
(0.775518 0.00032383 0)
(0.881523 0.000310383 0)
(0.775451 0.000266777 0)
(0.881564 0.00026824 0)
(0.775386 0.000218143 0)
(0.881581 0.00022839 0)
(0.775325 0.000177271 0)
(0.881581 0.000192378 0)
(0.775271 0.00014349 0)
(0.881571 0.00016004 0)
(0.775223 0.00011577 0)
(0.881558 0.000132322 0)
(0.775182 9.31185e-05 0)
(0.881542 0.000108893 0)
(0.775147 7.45988e-05 0)
(0.881525 8.89976e-05 0)
(0.775118 5.9525e-05 0)
(0.881509 7.22683e-05 0)
(0.775093 4.72972e-05 0)
(0.881495 5.83836e-05 0)
(0.775073 3.7437e-05 0)
(0.881482 4.6946e-05 0)
(0.775056 2.95348e-05 0)
(0.881471 3.75646e-05 0)
(0.775043 2.32084e-05 0)
(0.881461 2.98931e-05 0)
(0.775032 1.81425e-05 0)
(0.881453 2.36689e-05 0)
(0.775023 1.40928e-05 0)
(0.881446 1.86005e-05 0)
(0.775017 1.08812e-05 0)
(0.881441 1.45307e-05 0)
(0.775011 8.34303e-06 0)
(0.881437 1.12676e-05 0)
(0.775007 6.33317e-06 0)
(0.881433 8.65589e-06 0)
(0.775004 4.71466e-06 0)
(0.88143 6.53558e-06 0)
(0.775001 3.3806e-06 0)
(0.881428 4.77691e-06 0)
(0.775 2.23978e-06 0)
(0.881427 3.29514e-06 0)
(0.774999 1.29213e-06 0)
(0.881426 1.99301e-06 0)
(0.774999 4.11877e-07 0)
(0.881425 9.35699e-07 0)
(0.881426 -2.01601e-07 0)
(1.03966 0.109892 0)
(1.00932 0.049385 0)
(1.07958 0.150525 0)
(1.04737 0.11858 0)
(1.09932 0.150071 0)
(1.0838 0.141226 0)
(1.1027 0.134036 0)
(1.10433 0.137997 0)
(1.09352 0.110498 0)
(1.10906 0.122655 0)
(1.07704 0.0839748 0)
(1.10499 0.0994156 0)
(1.05817 0.0592407 0)
(1.09414 0.0749362 0)
(1.04067 0.0393981 0)
(1.08127 0.0531742 0)
(1.02632 0.0251955 0)
(1.06894 0.0362525 0)
(1.01532 0.0157475 0)
(1.05855 0.024166 0)
(1.00729 0.00976037 0)
(1.05027 0.0158725 0)
(1.00154 0.00609355 0)
(1.04396 0.0104138 0)
(0.997392 0.00389393 0)
(1.03926 0.00694304 0)
(0.994313 0.0025694 0)
(1.03572 0.00476799 0)
(0.991941 0.00176342 0)
(1.03301 0.00338604 0)
(0.989991 0.00129152 0)
(1.03086 0.00253078 0)
(0.988233 0.00106775 0)
(1.02905 0.00207227 0)
(0.986468 0.00106911 0)
(1.02738 0.0019478 0)
(0.984509 0.00131136 0)
(1.02565 0.00215038 0)
(0.982168 0.00183153 0)
(1.0237 0.00269528 0)
(0.979201 0.0026717 0)
(1.02127 0.00367984 0)
(0.975296 0.00383952 0)
(1.01807 0.0052087 0)
(0.970138 0.00525212 0)
(1.01369 0.00726947 0)
(0.963519 0.00665739 0)
(1.0077 0.00966366 0)
(0.955569 0.00767476 0)
(0.999926 0.0118164 3.50156e-34)
(0.94682 0.00794583 0)
(0.9909 0.0130578 -3.50813e-34)
(0.938085 0.00720914 0)
(0.981502 0.0128983 0)
(0.930406 0.00538611 0)
(0.972904 0.0110185 0)
(0.924912 0.00282421 0)
(0.96646 0.00741974 0)
(0.922195 0.000353431 0)
(0.963182 0.0030364 0)
(0.921733 -0.00154018 0)
(0.962636 -0.000437536 0)
(0.922881 -0.00305366 0)
(0.96328 -0.00290721 0)
(0.925469 -0.00435677 0)
(0.964531 -0.0049941 0)
(0.929513 -0.00534865 0)
(0.966594 -0.00693428 0)
(0.934809 -0.00588629 0)
(0.96989 -0.00843114 0)
(0.940984 -0.00595111 0)
(0.974508 -0.00926846 0)
(0.947605 -0.00562541 0)
(0.980194 -0.00943767 0)
(0.954243 -0.00502259 0)
(0.986575 -0.00903822 0)
(0.960532 -0.00425497 0)
(0.993161 -0.00821252 0)
(0.966186 -0.00341908 0)
(0.999512 -0.00708432 0)
(0.971045 -0.00259512 0)
(1.00526 -0.00581831 0)
(0.975076 -0.00184506 0)
(1.01019 -0.00457274 0)
(0.978325 -0.00120911 0)
(1.01427 -0.00345137 0)
(0.98087 -0.000703532 0)
(1.01754 -0.00248899 0)
(0.982816 -0.000325717 0)
(1.02009 -0.00170725 0)
(0.984276 -6.06655e-05 0)
(1.02204 -0.00110443 0)
(0.985353 0.000111309 0)
(1.02352 -0.000659763 0)
(0.986133 0.000211485 0)
(1.02462 -0.000347423 0)
(0.986692 0.000261084 0)
(1.02543 -0.00013807 0)
(0.987087 0.000277161 0)
(1.02602 -4.11284e-06 0)
(0.987363 0.000271883 0)
(1.02645 7.68288e-05 0)
(0.987552 0.000253722 0)
(1.02676 0.000120925 0)
(0.98768 0.000228837 0)
(1.02697 0.000140168 0)
(0.987765 0.00020202 0)
(1.02713 0.00014377 0)
(0.987819 0.000175019 0)
(1.02723 0.000138646 0)
(0.987852 0.000149054 0)
(1.0273 0.000127364 0)
(0.987871 0.000125634 0)
(1.02735 0.00011315 0)
(0.98788 0.00010484 0)
(1.02738 9.93529e-05 0)
(0.987884 8.67587e-05 0)
(1.02741 8.53736e-05 0)
(0.987884 7.1249e-05 0)
(1.02742 7.23679e-05 0)
(0.987882 5.81576e-05 0)
(1.02743 6.06558e-05 0)
(0.987878 4.72056e-05 0)
(1.02743 5.03726e-05 0)
(0.987875 3.80611e-05 0)
(1.02743 4.1506e-05 0)
(0.987871 3.04838e-05 0)
(1.02743 3.38573e-05 0)
(0.987867 2.42484e-05 0)
(1.02743 2.73809e-05 0)
(0.987864 1.91475e-05 0)
(1.02743 2.19403e-05 0)
(0.987861 1.50114e-05 0)
(1.02743 1.74502e-05 0)
(0.987858 1.16598e-05 0)
(1.02743 1.37433e-05 0)
(0.987856 8.92715e-06 0)
(1.02743 1.06866e-05 0)
(0.987855 6.66078e-06 0)
(1.02742 8.12123e-06 0)
(0.987853 4.7532e-06 0)
(1.02742 5.93891e-06 0)
(0.987853 3.10599e-06 0)
(1.02742 4.06374e-06 0)
(0.987852 1.68818e-06 0)
(1.02742 2.39584e-06 0)
(0.987852 3.63027e-07 0)
(1.02742 9.6801e-07 0)
(1.02742 -5.50984e-07 0)
(1.0199 0.0664392 0)
(1.00421 0.0294893 0)
(1.05781 0.109765 0)
(1.02722 0.080668 0)
(1.08955 0.126836 0)
(1.06182 0.109486 0)
(1.11009 0.12462 0)
(1.08941 0.117457 0)
(1.12055 0.110707 0)
(1.10727 0.112188 0)
(1.12179 0.0904432 0)
(1.11681 0.0981835 0)
(1.11682 0.0691328 0)
(1.11867 0.0799007 0)
(1.10917 0.0502545 0)
(1.11563 0.0608231 0)
(1.10097 0.0354723 0)
(1.11049 0.0444522 0)
(1.09332 0.0245644 0)
(1.10465 0.0318168 0)
(1.08682 0.0168044 0)
(1.0991 0.0223751 0)
(1.08161 0.0115086 0)
(1.09432 0.0156201 0)
(1.07754 0.00800169 0)
(1.09046 0.0110176 0)
(1.07435 0.00571219 0)
(1.08743 0.00795569 0)
(1.07186 0.00424752 0)
(1.08501 0.00587945 0)
(1.06985 0.00338973 0)
(1.08308 0.00454259 0)
(1.0681 0.00302276 0)
(1.0815 0.00381565 0)
(1.06644 0.00309292 0)
(1.08011 0.00360797 0)
(1.06468 0.00358767 0)
(1.07876 0.0039093 0)
(1.06261 0.00457762 0)
(1.0773 0.00476876 0)
(1.05993 0.00621945 0)
(1.07549 0.00635977 0)
(1.05624 0.00860075 0)
(1.07298 0.00890102 0)
(1.05104 0.0115981 0)
(1.06924 0.0124709 0)
(1.04391 0.01468 3.50156e-34)
(1.06357 0.0167894 0)
(1.03512 0.0169938 -4.65325e-37)
(1.05574 0.0206072 3.50156e-34)
(1.02563 0.0177708 -3.50813e-34)
(1.04728 0.0225453 -3.50813e-34)
(1.0166 0.0164479 0)
(1.03981 0.0219257 0)
(1.00936 0.0127902 0)
(1.0347 0.0182594 0)
(1.0052 0.0074158 0)
(1.0334 0.011581 0)
(1.00443 0.00216056 0)
(1.03624 0.0038113 0)
(1.00511 -0.00166727 0)
(1.04019 -0.00111806 0)
(1.0056 -0.00448719 0)
(1.04148 -0.00339811 0)
(1.00594 -0.00712012 0)
(1.0398 -0.00533837 0)
(1.00706 -0.00961111 0)
(1.0363 -0.00805162 0)
(1.00951 -0.0114739 0)
(1.03338 -0.0108768 0)
(1.01351 -0.0125036 0)
(1.03241 -0.013276 0)
(1.0189 -0.0127251 0)
(1.03382 -0.0148249 0)
(1.02523 -0.0122169 0)
(1.03732 -0.0153626 0)
(1.03191 -0.0111033 0)
(1.04243 -0.0148948 0)
(1.03838 -0.00957948 0)
(1.04825 -0.0135608 0)
(1.04424 -0.00791071 0)
(1.05407 -0.0116774 0)
(1.04925 -0.00630331 0)
(1.05936 -0.00958343 0)
(1.05338 -0.00485255 0)
(1.06384 -0.00757551 0)
(1.05667 -0.00359961 0)
(1.06748 -0.0057844 0)
(1.05925 -0.0025714 0)
(1.07036 -0.00428335 0)
(1.06123 -0.0017666 0)
(1.07259 -0.00308865 0)
(1.06275 -0.00116338 0)
(1.07431 -0.00217027 0)
(1.06388 -0.000728718 0)
(1.07561 -0.00148416 0)
(1.06473 -0.000425866 0)
(1.07659 -0.000987153 0)
(1.06536 -0.000220981 0)
(1.07732 -0.000633805 0)
(1.06582 -8.66347e-05 0)
(1.07787 -0.000386506 0)
(1.06616 -2.21091e-06 0)
(1.07827 -0.000216926 0)
(1.06641 4.7659e-05 0)
(1.07857 -0.000104308 0)
(1.06658 7.44888e-05 0)
(1.07878 -3.22201e-05 0)
(1.06671 8.6244e-05 0)
(1.07894 1.22206e-05 0)
(1.0668 8.83493e-05 0)
(1.07906 3.75711e-05 0)
(1.06686 8.4653e-05 0)
(1.07914 5.0339e-05 0)
(1.06691 7.76965e-05 0)
(1.0792 5.52197e-05 0)
(1.06694 6.92712e-05 0)
(1.07924 5.49439e-05 0)
(1.06696 6.04566e-05 0)
(1.07927 5.16809e-05 0)
(1.06697 5.19029e-05 0)
(1.07929 4.68615e-05 0)
(1.06698 4.39351e-05 0)
(1.0793 4.12112e-05 0)
(1.06699 3.66973e-05 0)
(1.07931 3.57626e-05 0)
(1.06699 3.02882e-05 0)
(1.07932 3.03461e-05 0)
(1.06699 2.47195e-05 0)
(1.07933 2.53591e-05 0)
(1.06699 1.99753e-05 0)
(1.07933 2.08903e-05 0)
(1.06699 1.59809e-05 0)
(1.07933 1.70252e-05 0)
(1.06699 1.26204e-05 0)
(1.07933 1.36771e-05 0)
(1.06699 9.77249e-06 0)
(1.07933 1.07938e-05 0)
(1.06699 7.32444e-06 0)
(1.07933 8.26436e-06 0)
(1.06699 5.20129e-06 0)
(1.07933 6.03969e-06 0)
(1.06699 3.32653e-06 0)
(1.07933 4.06579e-06 0)
(1.06699 1.66389e-06 0)
(1.07933 2.27378e-06 0)
(1.06699 5.22195e-08 0)
(1.07933 6.67738e-07 0)
(1.07933 -1.06425e-06 0)
(1.01049 0.0444735 0)
(1.00228 0.0189975 0)
(1.0354 0.0795683 0)
(1.01544 0.0557627 0)
(1.06305 0.099279 0)
(1.03975 0.0818349 0)
(1.08647 0.104478 0)
(1.06457 0.0940388 0)
(1.10355 0.0992162 0)
(1.08461 0.0951036 0)
(1.11354 0.0871468 0)
(1.09887 0.0881923 0)
(1.11737 0.0712693 0)
(1.10781 0.0760756 0)
(1.11675 0.0548994 0)
(1.11135 0.0614417 0)
(1.11397 0.0408119 0)
(1.11174 0.0472347 0)
(1.11029 0.029735 0)
(1.11013 0.0354952 0)
(1.10652 0.0212966 0)
(1.10775 0.0261485 0)
(1.10312 0.0151935 0)
(1.10529 0.0190111 0)
(1.1003 0.0110206 0)
(1.10299 0.0138469 0)
(1.098 0.00820352 0)
(1.10108 0.0102489 0)
(1.09616 0.00628993 0)
(1.09949 0.00772574 0)
(1.09467 0.00509372 0)
(1.09821 0.00603067 0)
(1.09341 0.00451735 0)
(1.09723 0.00507016 0)
(1.09229 0.00452795 0)
(1.09645 0.00472737 0)
(1.09122 0.00517413 0)
(1.0958 0.00498677 0)
(1.08998 0.00660168 0)
(1.09521 0.00600136 0)
(1.0883 0.00905307 0)
(1.09451 0.00804747 0)
(1.08569 0.0127367 0)
(1.09339 0.0115061 0)
(1.08151 0.0175841 0)
(1.09126 0.0166509 0)
(1.07507 0.0225419 0)
(1.08699 0.0232339 0)
(1.06759 0.0258706 0)
(1.08123 0.028082 0)
(1.06148 0.0262318 0)
(1.07718 0.0286547 0)
(1.05815 0.0230905 0)
(1.07796 0.0252623 0)
(1.0591 0.0164172 0)
(1.08521 0.0173052 0)
(1.06479 0.00766844 0)
(1.0997 0.00589534 0)
(1.07332 0.000759945 0)
(1.11691 -0.00471877 0)
(1.07796 -0.0023254 0)
(1.12634 -0.00576273 0)
(1.07661 -0.00372988 0)
(1.12634 -0.00204279 0)
(1.07032 -0.00583083 0)
(1.1188 0.000943432 0)
(1.06263 -0.00904881 0)
(1.10541 -0.000363494 0)
(1.05614 -0.012559 0)
(1.09051 -0.00438181 0)
(1.05234 -0.0154774 0)
(1.07784 -0.0094755 0)
(1.05183 -0.0173579 0)
(1.06923 -0.0143167 0)
(1.05417 -0.0180051 0)
(1.06535 -0.0177025 0)
(1.05851 -0.0174003 0)
(1.0656 -0.0192279 0)
(1.0637 -0.0157574 0)
(1.06854 -0.0187565 0)
(1.06902 -0.0134635 0)
(1.07263 -0.016994 0)
(1.07383 -0.0109795 0)
(1.07695 -0.0143913 0)
(1.07785 -0.00863005 0)
(1.08087 -0.0116026 0)
(1.0811 -0.00658195 0)
(1.08413 -0.00902778 0)
(1.08365 -0.00490347 0)
(1.08673 -0.00683443 0)
(1.08562 -0.0035837 0)
(1.08875 -0.0050651 0)
(1.08714 -0.00256932 0)
(1.0903 -0.00368541 0)
(1.08829 -0.00180669 0)
(1.09149 -0.00263506 0)
(1.08916 -0.00124496 0)
(1.09238 -0.00185625 0)
(1.08981 -0.000836295 0)
(1.09306 -0.00128812 0)
(1.0903 -0.000543602 0)
(1.09357 -0.000876764 0)
(1.09067 -0.000338425 0)
(1.09395 -0.000581628 0)
(1.09094 -0.00019819 0)
(1.09424 -0.000374532 0)
(1.09114 -0.000104666 0)
(1.09445 -0.000232015 0)
(1.09129 -4.3924e-05 0)
(1.09461 -0.0001352 0)
(1.09139 -5.84537e-06 0)
(1.09472 -7.05229e-05 0)
(1.09147 1.68602e-05 0)
(1.09481 -2.83873e-05 0)
(1.09153 2.92847e-05 0)
(1.09487 -1.99099e-06 0)
(1.09157 3.49129e-05 0)
(1.09492 1.35923e-05 0)
(1.0916 3.62324e-05 0)
(1.09496 2.19479e-05 0)
(1.09162 3.49558e-05 0)
(1.09498 2.5606e-05 0)
(1.09164 3.21779e-05 0)
(1.095 2.62344e-05 0)
(1.09165 2.86236e-05 0)
(1.09501 2.51066e-05 0)
(1.09166 2.48157e-05 0)
(1.09502 2.28984e-05 0)
(1.09166 2.10877e-05 0)
(1.09503 2.02006e-05 0)
(1.09166 1.76127e-05 0)
(1.09503 1.73302e-05 0)
(1.09167 1.44671e-05 0)
(1.09504 1.46292e-05 0)
(1.09167 1.1658e-05 0)
(1.09504 1.20647e-05 0)
(1.09167 9.14285e-06 0)
(1.09504 9.68133e-06 0)
(1.09167 6.87666e-06 0)
(1.09504 7.47226e-06 0)
(1.09167 4.83203e-06 0)
(1.09504 5.43003e-06 0)
(1.09167 2.96807e-06 0)
(1.09504 3.55348e-06 0)
(1.09167 1.25229e-06 0)
(1.09504 1.80205e-06 0)
(1.09167 -4.63141e-07 0)
(1.09504 1.5755e-07 0)
(1.09504 -1.64159e-06 0)
(1.0059 0.0311238 0)
(1.00134 0.0130944 0)
(1.02194 0.0582168 0)
(1.00937 0.0397308 0)
(1.04258 0.0763866 0)
(1.026 0.061195 0)
(1.06282 0.0843653 0)
(1.04552 0.0737948 0)
(1.08007 0.0838002 0)
(1.06352 0.077853 0)
(1.09314 0.0769363 0)
(1.07845 0.0751243 0)
(1.10177 0.0661111 0)
(1.08985 0.0674394 0)
(1.10626 0.0536998 0)
(1.09738 0.0569538 0)
(1.10772 0.0418705 0)
(1.10156 0.0457743 0)
(1.10753 0.0318364 0)
(1.1034 0.0356886 0)
(1.10649 0.02378 0)
(1.10386 0.0271843 0)
(1.10512 0.0176324 0)
(1.10363 0.0203849 0)
(1.10372 0.0131138 0)
(1.103 0.0152477 0)
(1.1025 0.00983527 0)
(1.1023 0.01147 0)
(1.10149 0.00752789 0)
(1.10168 0.00873762 0)
(1.10072 0.00606729 0)
(1.10118 0.00679708 0)
(1.10018 0.00534991 0)
(1.10089 0.0056107 0)
(1.09983 0.00527271 0)
(1.10081 0.00507954 0)
(1.09964 0.0059122 0)
(1.10097 0.00517481 0)
(1.09953 0.00754358 0)
(1.10143 0.00610632 0)
(1.09933 0.0105739 0)
(1.10219 0.00825561 0)
(1.09858 0.0154435 0)
(1.10308 0.0122542 0)
(1.09651 0.0221606 0)
(1.10359 0.0187199 0)
(1.09249 0.0284602 0)
(1.10256 0.0272499 0)
(1.09041 0.0304005 0)
(1.10211 0.0301643 0)
(1.09348 0.0269257 0)
(1.10525 0.0255862 0)
(1.10519 0.0178781 0)
(1.11928 0.0135501 0)
(1.12596 0.00331604 0)
(1.13911 -0.00346073 0)
(1.15213 -0.0110763 0)
(1.16611 -0.0202711 0)
(1.17225 -0.0143478 0)
(1.17505 -0.024838 -3.74208e-17)
(1.17656 -0.00572324 0)
(1.16771 -0.0100784 0)
(1.16984 0.00491057 0)
(1.16312 0.00467282 0)
(1.15389 0.0106145 0)
(1.16318 0.0168966 0)
(1.13293 0.00841307 0)
(1.15542 0.0205971 0)
(1.11217 0.000911664 0)
(1.14378 0.0163805 0)
(1.09415 -0.00756985 0)
(1.1256 0.00854614 0)
(1.08208 -0.0145743 0)
(1.10638 -0.00224964 0)
(1.07628 -0.0189937 0)
(1.09248 -0.0119038 0)
(1.07529 -0.020695 0)
(1.08521 -0.0182391 0)
(1.07725 -0.0201327 0)
(1.08328 -0.0207139 0)
(1.08038 -0.0180677 0)
(1.08423 -0.0201243 0)
(1.08389 -0.0151312 0)
(1.08638 -0.017897 0)
(1.08708 -0.0120967 0)
(1.08891 -0.0147941 0)
(1.08971 -0.00935821 0)
(1.09122 -0.0116588 0)
(1.09179 -0.00706248 0)
(1.09311 -0.00891353 0)
(1.0934 -0.00522667 0)
(1.09457 -0.00667388 0)
(1.09463 -0.00380543 0)
(1.0957 -0.00491559 0)
(1.09556 -0.00273309 0)
(1.09656 -0.00357057 0)
(1.09627 -0.00194217 0)
(1.09722 -0.00256394 0)
(1.09681 -0.00136558 0)
(1.09771 -0.00182258 0)
(1.09721 -0.000945691 0)
(1.09809 -0.00128009 0)
(1.09751 -0.000642634 0)
(1.09837 -0.000885397 0)
(1.09774 -0.000427834 0)
(1.09858 -0.000602973 0)
(1.09791 -0.000277387 0)
(1.09875 -0.000403915 0)
(1.09804 -0.000172921 0)
(1.09887 -0.000264371 0)
(1.09814 -0.00010141 0)
(1.09896 -0.00016716 0)
(1.09821 -5.35113e-05 0)
(1.09903 -0.000100313 0)
(1.09826 -2.23538e-05 0)
(1.09909 -5.54904e-05 0)
(1.0983 -2.84959e-06 0)
(1.09913 -2.61872e-05 0)
(1.09833 8.72439e-06 0)
(1.09916 -7.54634e-06 0)
(1.09836 1.49719e-05 0)
(1.09918 3.82817e-06 0)
(1.09837 1.77241e-05 0)
(1.0992 1.02705e-05 0)
(1.09838 1.82494e-05 0)
(1.09921 1.33901e-05 0)
(1.09839 1.74105e-05 0)
(1.09922 1.43437e-05 0)
(1.0984 1.58319e-05 0)
(1.09922 1.39646e-05 0)
(1.0984 1.39026e-05 0)
(1.09923 1.28532e-05 0)
(1.09841 1.18494e-05 0)
(1.09923 1.13684e-05 0)
(1.09841 9.79427e-06 0)
(1.09924 9.7023e-06 0)
(1.09841 7.78891e-06 0)
(1.09924 7.94305e-06 0)
(1.09841 5.86183e-06 0)
(1.09924 6.17081e-06 0)
(1.09841 4.03611e-06 0)
(1.09924 4.43077e-06 0)
(1.09841 2.30634e-06 0)
(1.09924 2.76149e-06 0)
(1.09841 6.52043e-07 0)
(1.09924 1.14785e-06 0)
(1.09841 -1.04911e-06 0)
(1.09924 -4.363e-07 0)
(1.09924 -2.19002e-06 0)
(1.00366 0.0223662 0)
(1.00088 0.00943176 0)
(1.01451 0.0430154 0)
(1.00623 0.028886 0)
(1.02988 0.0585445 0)
(1.01808 0.0458183 0)
(1.04648 0.0670623 0)
(1.03332 0.0572041 0)
(1.06202 0.0689024 0)
(1.04875 0.0623046 0)
(1.07525 0.0653579 0)
(1.06276 0.0618989 0)
(1.08549 0.0580746 0)
(1.07459 0.0571977 0)
(1.09266 0.0488852 0)
(1.08373 0.0497836 0)
(1.09713 0.0394904 0)
(1.0902 0.0413012 0)
(1.0997 0.0309912 0)
(1.09445 0.0331184 0)
(1.10098 0.0238185 0)
(1.09712 0.0259072 0)
(1.10145 0.0180689 0)
(1.0987 0.0199128 0)
(1.10153 0.0136701 0)
(1.09958 0.0151703 0)
(1.10145 0.0104252 0)
(1.10008 0.0115517 0)
(1.10134 0.00805967 0)
(1.10039 0.00884642 0)
(1.1013 0.00641985 0)
(1.10066 0.00683453 0)
(1.10144 0.00545742 0)
(1.10101 0.00547532 0)
(1.10185 0.0051221 0)
(1.10157 0.00466996 0)
(1.10262 0.00552294 0)
(1.10252 0.00440005 0)
(1.10387 0.00698849 0)
(1.10405 0.00485567 0)
(1.10563 0.010118 0)
(1.10647 0.00649692 0)
(1.10767 0.0156782 0)
(1.10992 0.0102196 0)
(1.10943 0.0238416 0)
(1.11412 0.0169596 0)
(1.11107 0.0285249 0)
(1.1183 0.0256142 0)
(1.11672 0.0237863 0)
(1.12171 0.0245148 6.0521e-33)
(1.1308 0.0106871 0)
(1.12457 0.0115056 -6.05614e-33)
(1.15426 -0.00891147 0)
(1.13867 -0.00991544 0)
(1.1776 -0.0222706 0)
(1.14123 -0.0268007 0)
(1.18914 -0.0236209 -3.74208e-17)
(0.596735 0.533228 0)
(1.17349 -0.0151061 -3.74208e-17)
(0.592493 0.379122 -3.74208e-17)
(1.15506 -0.000848398 0)
(0.579505 0.27258 0)
(1.15714 0.0106693 0)
(0.575771 0.23714 0)
(1.16608 0.0163676 0)
(0.581441 0.249091 0)
(1.16458 0.021245 0)
(0.583243 0.1581 0)
(1.15724 0.0236582 0)
(1.15076 0.0237201 0)
(1.13704 0.0151928 0)
(1.15038 0.0287449 0)
(1.11605 0.0011667 0)
(1.13575 0.0187475 0)
(1.10077 -0.0111179 0)
(1.11801 0.00337228 0)
(1.09279 -0.0184531 0)
(1.10483 -0.0102538 0)
(1.09006 -0.0209205 0)
(1.098 -0.0179881 0)
(1.09006 -0.020151 0)
(1.09541 -0.0201253 0)
(1.0913 -0.0177422 0)
(1.09497 -0.0191343 0)
(1.09301 -0.0145087 0)
(1.09545 -0.0165054 0)
(1.09459 -0.0113386 0)
(1.09636 -0.0132386 0)
(1.09587 -0.00862054 0)
(1.09721 -0.0101903 0)
(1.09686 -0.00643223 0)
(1.0979 -0.00766935 0)
(1.09763 -0.0047306 0)
(1.09843 -0.00567925 0)
(1.09821 -0.00343813 0)
(1.09884 -0.00415347 0)
(1.09865 -0.00247296 0)
(1.09916 -0.00300723 0)
(1.09899 -0.00176088 0)
(1.0994 -0.0021584 0)
(1.09924 -0.00124013 0)
(1.09959 -0.00153524 0)
(1.09944 -0.000863173 0)
(1.09974 -0.00108072 0)
(1.09959 -0.000594051 0)
(1.09985 -0.000752675 0)
(1.0997 -0.000403653 0)
(1.09994 -0.000518481 0)
(1.09979 -0.000269174 0)
(1.10001 -0.00035202 0)
(1.09986 -0.000174547 0)
(1.10007 -0.000234223 0)
(1.09991 -0.000108903 0)
(1.10011 -0.000151671 0)
(1.09995 -6.44069e-05 0)
(1.10014 -9.49288e-05 0)
(1.09998 -3.47847e-05 0)
(1.10017 -5.64278e-05 0)
(1.1 -1.54273e-05 0)
(1.10019 -3.06776e-05 0)
(1.10002 -3.16635e-06 0)
(1.10021 -1.38278e-05 0)
(1.10003 4.18262e-06 0)
(1.10022 -3.17283e-06 0)
(1.10004 8.16567e-06 0)
(1.10023 3.1668e-06 0)
(1.10005 9.91471e-06 0)
(1.10024 6.59202e-06 0)
(1.10006 1.02641e-05 0)
(1.10024 8.10317e-06 0)
(1.10006 9.78115e-06 0)
(1.10025 8.44013e-06 0)
(1.10006 8.8066e-06 0)
(1.10025 8.03818e-06 0)
(1.10007 7.53681e-06 0)
(1.10025 7.17308e-06 0)
(1.10007 6.09025e-06 0)
(1.10025 6.00975e-06 0)
(1.10007 4.5637e-06 0)
(1.10026 4.67802e-06 0)
(1.10007 3.02605e-06 0)
(1.10026 3.273e-06 0)
(1.10007 1.51006e-06 0)
(1.10026 1.85635e-06 0)
(1.10007 -1.59127e-09 0)
(1.10026 4.44424e-07 0)
(1.10007 -1.6099e-06 0)
(1.10026 -1.00891e-06 0)
(1.10026 -2.6364e-06 0)
(1.00256 0.0163377 0)
(1.00065 0.00687593 0)
(1.01036 0.0318984 0)
(1.00455 0.0210846 0)
(1.02217 0.0444849 0)
(1.01345 0.0340041 0)
(1.03586 0.052347 0)
(1.02568 0.0435156 0)
(1.04961 0.0551606 0)
(1.03894 0.0485527 0)
(1.06221 0.0535945 0)
(1.0518 0.0493008 0)
(1.07288 0.0487832 0)
(1.0634 0.046528 0)
(1.08129 0.0421054 0)
(1.07314 0.0413769 0)
(1.08749 0.0348731 0)
(1.0808 0.0350999 0)
(1.09186 0.0280126 0)
(1.08654 0.028743 0)
(1.09484 0.0220033 0)
(1.0907 0.0229294 0)
(1.09681 0.0170284 0)
(1.09365 0.0179459 0)
(1.09811 0.0130826 0)
(1.09572 0.0138721 0)
(1.099 0.0100374 0)
(1.09719 0.0106552 0)
(1.0997 0.00772161 0)
(1.09829 0.00814737 0)
(1.10034 0.0060137 0)
(1.09921 0.00619743 0)
(1.1011 0.00482838 0)
(1.10009 0.00471902 0)
(1.10218 0.00411283 0)
(1.10114 0.00358894 0)
(1.10383 0.00393539 0)
(1.10264 0.00275006 0)
(1.10644 0.00461025 0)
(1.10497 0.00224266 0)
(1.11043 0.00690776 0)
(1.10886 0.00250875 0)
(1.116 0.0119181 0)
(1.11455 0.00464492 0)
(1.12291 0.0196698 0)
(1.12243 0.0100585 0)
(1.12823 0.0231703 6.0521e-33)
(1.12871 0.0202954 0)
(1.13174 0.0132058 -7.05499e-35)
(1.1276 0.0209974 6.0521e-33)
(1.14049 -0.00819158 -6.05614e-33)
(1.10957 0.00276351 2.59523e-18)
(1.14942 -0.0173718 0)
(1.01071 -0.0115837 0)
(1.53733 -0.00709554 0)
(0.55872 0.404218 0)
(0.839642 0 0)
(0 -0.00238827 0)
(0.405846 0 0)
(0 0.00128406 0)
(0.374634 0 0)
(0 0.0055716 0)
(0.443271 0 0)
(0 0.0124988 0)
(0.526769 0 0)
(0 0.0214272 0)
(0.864137 0.00839992 0)
(0 0.0616548 0)
(1.14447 0.0234571 0)
(0.568065 0.091143 0)
(1.14748 0.0286854 0)
(1.13948 0.0241823 -7.68214e-18)
(1.13667 0.0198155 0)
(1.1433 0.0295574 -1.32104e-18)
(1.12151 0.00372134 0)
(1.13304 0.018536 0)
(1.1097 -0.0102713 0)
(1.12049 0.00155878 0)
(1.10319 -0.0175982 0)
(1.11144 -0.0114834 0)
(1.10023 -0.019409 0)
(1.10642 -0.0171684 0)
(1.09904 -0.0181176 0)
(1.10367 -0.0179419 0)
(1.09881 -0.015399 0)
(1.10211 -0.0162727 0)
(1.09899 -0.0122264 0)
(1.10135 -0.0134162 0)
(1.09924 -0.00934786 0)
(1.10098 -0.0104452 0)
(1.09947 -0.00700098 0)
(1.10076 -0.00789665 0)
(1.09965 -0.0051679 0)
(1.10061 -0.00586405 0)
(1.0998 -0.00377334 0)
(1.10051 -0.00430094 0)
(1.09992 -0.00273084 0)
(1.10044 -0.00312498 0)
(1.10001 -0.00196062 0)
(1.1004 -0.00225301 0)
(1.10009 -0.00139611 0)
(1.10038 -0.00161237 0)
(1.10015 -0.000985264 0)
(1.10037 -0.00114483 0)
(1.10021 -0.000688594 0)
(1.10037 -0.000806094 0)
(1.10025 -0.000475981 0)
(1.10038 -0.000562535 0)
(1.10029 -0.000324525 0)
(1.10039 -0.000388325 0)
(1.10032 -0.00021748 0)
(1.1004 -0.000264279 0)
(1.10034 -0.000142772 0)
(1.10041 -0.000176663 0)
(1.10036 -9.11518e-05 0)
(1.10042 -0.000115554 0)
(1.10038 -5.57447e-05 0)
(1.10043 -7.32381e-05 0)
(1.10039 -3.18034e-05 0)
(1.10044 -4.43036e-05 0)
(1.10041 -1.59482e-05 0)
(1.10045 -2.48807e-05 0)
(1.10041 -5.81392e-06 0)
(1.10046 -1.2157e-05 0)
(1.10042 3.32278e-07 0)
(1.10046 -4.08542e-06 0)
(1.10043 3.79996e-06 0)
(1.10047 7.52074e-07 0)
(1.10043 5.5173e-06 0)
(1.10047 3.45179e-06 0)
(1.10044 6.10846e-06 0)
(1.10047 4.76608e-06 0)
(1.10044 5.95718e-06 0)
(1.10048 5.13905e-06 0)
(1.10044 5.31022e-06 0)
(1.10048 4.86148e-06 0)
(1.10044 4.34761e-06 0)
(1.10048 4.166e-06 0)
(1.10044 3.20221e-06 0)
(1.10048 3.21298e-06 0)
(1.10045 1.96782e-06 0)
(1.10048 2.12426e-06 0)
(1.10045 6.95696e-07 0)
(1.10049 9.67197e-07 0)
(1.10045 -6.24277e-07 0)
(1.10049 -2.20619e-07 0)
(1.10045 -2.06869e-06 0)
(1.10049 -1.48905e-06 0)
(1.10049 -2.92388e-06 0)
(1.00195 0.0118579 0)
(1.00051 0.0049211 0)
(1.00796 0.0233427 0)
(1.0036 0.0150845 0)
(1.0174 0.0330698 0)
(1.0107 0.0245572 0)
(1.02898 0.0396832 0)
(1.02084 0.0319369 0)
(1.04125 0.042622 0)
(1.03248 0.0362831 0)
(1.0531 0.0421529 0)
(1.04434 0.0374546 0)
(1.06373 0.0390434 0)
(1.05554 0.0358938 0)
(1.0727 0.034307 0)
(1.06544 0.0324126 0)
(1.07987 0.0289282 0)
(1.07372 0.0279296 0)
(1.08539 0.023641 0)
(1.08034 0.0232218 0)
(1.08952 0.0188725 0)
(1.08548 0.0187926 0)
(1.09257 0.0148128 0)
(1.08938 0.0149016 0)
(1.0948 0.011492 0)
(1.09231 0.011638 0)
(1.09648 0.00883452 0)
(1.09452 0.00897858 0)
(1.0978 0.0067177 0)
(1.09621 0.00682194 0)
(1.09895 0.00502638 0)
(1.09758 0.00505069 0)
(1.10012 0.00363659 0)
(1.09878 0.00354697 0)
(1.10158 0.00242408 0)
(1.10003 0.00213212 0)
(1.10371 0.0012971 0)
(1.1016 0.000622328 0)
(1.10717 0.000393396 0)
(1.10399 -0.00121787 0)
(1.11273 0.000442777 0)
(1.10801 -0.00305373 0)