# vtk DataFile Version 2.0
sampleSurface
ASCII
DATASET POLYDATA
POINTS 4338 double
-0.000152 0 0.001
-0.000152 0 -0.001
0 -0.00025 0.001
0 -0.00025 -0.001
-0.000456 0 -0.001
-0.000456 0 0.001
0 -0.0005 0.001
0 -0.0005 -0.001
0 -0.00075 0.001
0 -0.00075 -0.001
-0.00076 0 -0.001
-0.00076 0 0.001
0 -0.001 0.001
0 -0.001 -0.001
-0.001064 0 -0.001
-0.001064 0 0.001
0 -0.00125 0.001
0 -0.00125 -0.001
-0.001368 0 -0.001
-0.001368 0 0.001
0 -0.0015 0.001
0 -0.0015 -0.001
-0.001672 0 -0.001
-0.001672 0 0.001
0 -0.00175 0.001
0 -0.00175 -0.001
-0.001976 0 -0.001
-0.001976 0 0.001
0 -0.002 0.001
0 -0.002 -0.001
0 -0.00225 0.001
0 -0.00225 -0.001
-0.00228 0 -0.001
-0.00228 0 0.001
0 -0.0025 0.001
0 -0.0025 -0.001
-0.002584 0 -0.001
-0.002584 0 0.001
0 -0.00275 0.001
0 -0.00275 -0.001
-0.002888 0 -0.001
-0.002888 0 0.001
0 -0.003 0.001
0 -0.003 -0.001
-0.003192 0 -0.001
-0.003192 0 0.001
0 -0.00325 0.001
0 -0.00325 -0.001
-0.003496 0 -0.001
-0.003496 0 0.001
0 -0.0035 0.001
0 -0.0035 -0.001
0 -0.00375 0.001
0 -0.00375 -0.001
-0.0038 0 -0.001
-0.0038 0 0.001
0 -0.004 0.001
0 -0.004 -0.001
-0.004104 0 -0.001
-0.004104 0 0.001
0 -0.00425 0.001
0 -0.00425 -0.001
-0.004408 0 -0.001
-0.004408 0 0.001
0 -0.0045 0.001
0 -0.0045 -0.001
-0.004712 0 -0.001
-0.004712 0 0.001
0 -0.00475 0.001
0 -0.00475 -0.001
0 -0.005 0.001
0 -0.005 -0.001
-0.005016 0 -0.001
-0.005016 0 0.001
0 -0.00525 0.001
0 -0.00525 -0.001
-0.00532 0 -0.001
-0.00532 0 0.001
0 -0.0055 0.001
0 -0.0055 -0.001
-0.005624 0 -0.001
-0.005624 0 0.001
0 -0.00575 0.001
0 -0.00575 -0.001
-0.005928 0 -0.001
-0.005928 0 0.001
0 -0.006 0.001
0 -0.006 -0.001
-0.006232 0 -0.001
-0.006232 0 0.001
0 -0.00625 0.001
0 -0.00625 -0.001
0 -0.0065 0.001
0 -0.0065 -0.001
-0.006536 0 -0.001
-0.006536 0 0.001
0 -0.00675 0.001
0 -0.00675 -0.001
-0.00684 0 -0.001
-0.00684 0 0.001
0 -0.007 0.001
0 -0.007 -0.001
-0.007144 0 -0.001
-0.007144 0 0.001
0 -0.00725 0.001
0 -0.00725 -0.001
-0.007448 0 -0.001
-0.007448 0 0.001
0 -0.0075 0.001
0 -0.0075 -0.001
0 -0.00775 0.001
0 -0.00775 -0.001
-0.007752 0 -0.001
-0.007752 0 0.001
0 -0.008 0.001
0 -0.008 -0.001
-0.008056 0 -0.001
-0.008056 0 0.001
0 -0.00825 0.001
0 -0.00825 -0.001
-0.00836 0 -0.001
-0.00836 0 0.001
0 -0.0085 0.001
0 -0.0085 -0.001
-0.008664 0 -0.001
-0.008664 0 0.001
0 -0.00875 0.001
0 -0.00875 -0.001
-0.008968 0 -0.001
-0.008968 0 0.001
0 -0.009 0.001
0 -0.009 -0.001
0 -0.00925 0.001
0 -0.00925 -0.001
-0.009272 0 -0.001
-0.009272 0 0.001
0 -0.0095 0.001
0 -0.0095 -0.001
-0.009576 0 -0.001
-0.009576 0 0.001
0 -0.00975 0.001
0 -0.00975 -0.001
-0.00988 0 -0.001
-0.00988 0 0.001
0 -0.01 0.001
0 -0.01 -0.001
-0.010184 0 -0.001
-0.010184 0 0.001
0 -0.01025 0.001
0 -0.01025 -0.001
-0.010488 0 -0.001
-0.010488 0 0.001
0 -0.0105 0.001
0 -0.0105 -0.001
0 -0.01075 0.001
0 -0.01075 -0.001
-0.010792 -5.78241e-19 -0.001
-0.010792 -5.78241e-19 0.001
0 -0.011 0.001
0 -0.011 -0.001
-0.011096 0 -0.001
-0.011096 0 0.001
0 -0.01125 0.001
0 -0.01125 -0.001
-0.0114 0 -0.001
-0.0114 0 0.001
0 -0.0115 0.001
0 -0.0115 -0.001
-0.011704 0 -0.001
-0.011704 0 0.001
0 -0.01175 0.001
0 -0.01175 -0.001
0 -0.012 0.001
0 -0.012 -0.001
-0.012008 0 -0.001
-0.012008 0 0.001
0 -0.01225 0.001
0 -0.01225 -0.001
-0.012312 0 -0.001
-0.012312 0 0.001
0 -0.0125 0.001
0 -0.0125 -0.001
-0.012616 0 -0.001
-0.012616 0 0.001
0 -0.01275 0.001
0 -0.01275 -0.001
-0.01292 0 -0.001
-0.01292 0 0.001
0 -0.013 0.001
0 -0.013 -0.001
-0.013224 0 -0.001
-0.013224 0 0.001
0 -0.01325 0.001
0 -0.01325 -0.001
0 -0.0135 0.001
0 -0.0135 -0.001
-0.013528 0 -0.001
-0.013528 0 0.001
0 -0.01375 0.001
0 -0.01375 -0.001
-0.013832 0 -0.001
-0.013832 0 0.001
0 -0.014 0.001
0 -0.014 -0.001
-0.014136 0 -0.001
-0.014136 0 0.001
0 -0.01425 0.001
0 -0.01425 -0.001
-0.01444 0 -0.001
-0.01444 0 0.001
0 -0.0145 0.001
0 -0.0145 -0.001
-0.014744 0 -0.001
-0.014744 0 0.001
0 -0.01475 0.001
0 -0.01475 -0.001
0 -0.015 0.001
0 -0.015 -0.001
-0.015048 0 -0.001
-0.015048 0 0.001
0 -0.01525 0.001
0 -0.01525 -0.001
-0.015352 0 -0.001
-0.015352 0 0.001
0 -0.0155 0.001
0 -0.0155 -0.001
-0.015656 0 -0.001
-0.015656 0 0.001
0 -0.01575 0.001
0 -0.01575 -0.001
-0.01596 0 -0.001
-0.01596 0 0.001
0 -0.016 0.001
0 -0.016 -0.001
0 -0.01625 0.001
0 -0.01625 -0.001
-0.016264 0 -0.001
-0.016264 0 0.001
0 -0.0165 0.001
0 -0.0165 -0.001
-0.016568 0 -0.001
-0.016568 0 0.001
0 -0.01675 0.001
0 -0.01675 -0.001
-0.016872 0 -0.001
-0.016872 0 0.001
0 -0.017 0.001
0 -0.017 -0.001
-0.017176 0 -0.001
-0.017176 0 0.001
0 -0.01725 0.001
0 -0.01725 -0.001
-0.01748 0 -0.001
-0.01748 0 0.001
0 -0.0175 0.001
0 -0.0175 -0.001
0 -0.01775 0.001
0 -0.01775 -0.001
-0.017784 0 -0.001
-0.017784 0 0.001
0 -0.018 0.001
0 -0.018 -0.001
-0.018088 0 -0.001
-0.018088 0 0.001
0 -0.01825 0.001
0 -0.01825 -0.001
-0.018392 0 -0.001
-0.018392 0 0.001
0 -0.0185 0.001
0 -0.0185 -0.001
-0.018696 0 -0.001
-0.018696 0 0.001
0 -0.01875 0.001
0 -0.01875 -0.001
0 -0.019 0.001
0 -0.019 -0.001
-0.019 0 -0.001
-0.019 0 0.001
0 -0.01925 0.001
0 -0.01925 -0.001
0 -0.0195 0.001
0 -0.0195 -0.001
0 -0.01975 0.001
0 -0.01975 -0.001
0 -0.02 0.001
0 -0.02 -0.001
0 -0.02025 0.001
0 -0.02025 -0.001
0 -0.0205 0.001
0 -0.0205 -0.001
0 -0.02075 0.001
0 -0.02075 -0.001
0 -0.021 0.001
0 -0.021 -0.001
0 -0.02125 0.001
0 -0.02125 -0.001
0 -0.0215 0.001
0 -0.0215 -0.001
0 -0.02175 0.001
0 -0.02175 -0.001
0 -0.022 0.001
0 -0.022 -0.001
0 -0.02225 0.001
0 -0.02225 -0.001
0 -0.0225 0.001
0 -0.0225 -0.001
0 -0.02275 0.001
0 -0.02275 -0.001
0 -0.023 0.001
0 -0.023 -0.001
0 -0.02325 0.001
0 -0.02325 -0.001
0 -0.0235 0.001
0 -0.0235 -0.001
0 -0.02375 0.001
0 -0.02375 -0.001
0 -0.024 0.001
0 -0.024 -0.001
0 -0.02425 0.001
0 -0.02425 -0.001
0 -0.0245 0.001
0 -0.0245 -0.001
0 -0.02475 0.001
0 -0.02475 -0.001
0 -0.025 0.001
0 -0.025 -0.001
1.00662e-06 -0.02525 0.001
1.00662e-06 -0.02525 -0.001
0.000152 -0.0254 -0.001
0.000152 -0.0254 0.001
-0.000152 0.0254 0.001
-0.000152 0.0254 -0.001
0.000152 0.0254 0.001
0.000152 0.0254 -0.001
0.000456 -0.0254 0.001
0.000456 -0.0254 -0.001
-0.000456 0.0254 0.001
-0.000456 0.0254 -0.001
0.000456 0.0254 0.001
0.000456 0.0254 -0.001
0.00076 -0.0254 0.001
0.00076 -0.0254 -0.001
-0.00076 0.0254 0.001
-0.00076 0.0254 -0.001
0.00076 0.0254 0.001
0.00076 0.0254 -0.001
0.001064 -0.0254 0.001
0.001064 -0.0254 -0.001
-0.001064 0.0254 0.001
-0.001064 0.0254 -0.001
0.001064 0.0254 0.001
0.001064 0.0254 -0.001
0.001368 -0.0254 0.001
0.001368 -0.0254 -0.001
-0.001368 0.0254 0.001
-0.001368 0.0254 -0.001
0.001368 0.0254 0.001
0.001368 0.0254 -0.001
0.001672 -0.0254 0.001
0.001672 -0.0254 -0.001
-0.001672 0.0254 0.001
-0.001672 0.0254 -0.001
0.001672 0.0254 0.001
0.001672 0.0254 -0.001
0.001976 -0.0254 0.001
0.001976 -0.0254 -0.001
-0.001976 0.0254 0.001
-0.001976 0.0254 -0.001
0.001976 0.0254 0.001
0.001976 0.0254 -0.001
0.00228 -0.0254 0.001
0.00228 -0.0254 -0.001
-0.00228 0.0254 0.001
-0.00228 0.0254 -0.001
0.00228 0.0254 0.001
0.00228 0.0254 -0.001
0.002584 -0.0254 0.001
0.002584 -0.0254 -0.001
-0.002584 0.0254 0.001
-0.002584 0.0254 -0.001
0.002584 0.0254 0.001
0.002584 0.0254 -0.001
0.002888 -0.0254 0.001
0.002888 -0.0254 -0.001
-0.002888 0.0254 0.001
-0.002888 0.0254 -0.001
0.002888 0.0254 0.001
0.002888 0.0254 -0.001
0.003192 -0.0254 0.001
0.003192 -0.0254 -0.001
-0.003192 0.0254 0.001
-0.003192 0.0254 -0.001
0.003192 0.0254 0.001
0.003192 0.0254 -0.001
0.003496 -0.0254 0.001
0.003496 -0.0254 -0.001
-0.003496 0.0254 0.001
-0.003496 0.0254 -0.001
0.003496 0.0254 0.001
0.003496 0.0254 -0.001
0.0038 -0.0254 0.001
0.0038 -0.0254 -0.001
-0.0038 0.0254 0.001
-0.0038 0.0254 -0.001
0.0038 0.0254 0.001
0.0038 0.0254 -0.001
0.004104 -0.0254 0.001
0.004104 -0.0254 -0.001
-0.004104 0.0254 0.001
-0.004104 0.0254 -0.001
0.004104 0.0254 0.001
0.004104 0.0254 -0.001
0.004408 -0.0254 0.001
0.004408 -0.0254 -0.001
-0.004408 0.0254 0.001
-0.004408 0.0254 -0.001
0.004408 0.0254 0.001
0.004408 0.0254 -0.001
0.004712 -0.0254 0.001
0.004712 -0.0254 -0.001
-0.004712 0.0254 0.001
-0.004712 0.0254 -0.001
0.004712 0.0254 0.001
0.004712 0.0254 -0.001
0.005016 -0.0254 0.001
0.005016 -0.0254 -0.001
-0.005016 0.0254 0.001
-0.005016 0.0254 -0.001
0.005016 0.0254 0.001
0.005016 0.0254 -0.001
0.00532 -0.0254 0.001
0.00532 -0.0254 -0.001
-0.00532 0.0254 0.001
-0.00532 0.0254 -0.001
0.00532 0.0254 0.001
0.00532 0.0254 -0.001
0.005624 -0.0254 0.001
0.005624 -0.0254 -0.001
-0.005624 0.0254 0.001
-0.005624 0.0254 -0.001
0.005624 0.0254 0.001
0.005624 0.0254 -0.001
0.005928 -0.0254 0.001
0.005928 -0.0254 -0.001
-0.005928 0.0254 0.001
-0.005928 0.0254 -0.001
0.005928 0.0254 0.001
0.005928 0.0254 -0.001
0.006232 -0.0254 0.001
0.006232 -0.0254 -0.001
-0.006232 0.0254 0.001
-0.006232 0.0254 -0.001
0.006232 0.0254 0.001
0.006232 0.0254 -0.001
0.006536 -0.0254 0.001
0.006536 -0.0254 -0.001
-0.006536 0.0254 0.001
-0.006536 0.0254 -0.001
0.006536 0.0254 0.001
0.006536 0.0254 -0.001
0.00684 -0.0254 0.001
0.00684 -0.0254 -0.001
-0.00684 0.0254 0.001
-0.00684 0.0254 -0.001
0.00684 0.0254 0.001
0.00684 0.0254 -0.001
0.007144 -0.0254 0.001
0.007144 -0.0254 -0.001
-0.007144 0.0254 0.001
-0.007144 0.0254 -0.001
0.007144 0.0254 0.001
0.007144 0.0254 -0.001
0.007448 -0.0254 0.001
0.007448 -0.0254 -0.001
-0.007448 0.0254 0.001
-0.007448 0.0254 -0.001
0.007448 0.0254 0.001
0.007448 0.0254 -0.001
0.007752 -0.0254 0.001
0.007752 -0.0254 -0.001
-0.007752 0.0254 0.001
-0.007752 0.0254 -0.001
0.007752 0.0254 0.001
0.007752 0.0254 -0.001
0.008056 -0.0254 0.001
0.008056 -0.0254 -0.001
-0.008056 0.0254 0.001
-0.008056 0.0254 -0.001
0.008056 0.0254 0.001
0.008056 0.0254 -0.001
0.00836 -0.0254 0.001
0.00836 -0.0254 -0.001
-0.00836 0.0254 0.001
-0.00836 0.0254 -0.001
0.00836 0.0254 0.001
0.00836 0.0254 -0.001
0.008664 -0.0254 0.001
0.008664 -0.0254 -0.001
-0.008664 0.0254 0.001
-0.008664 0.0254 -0.001
0.008664 0.0254 0.001
0.008664 0.0254 -0.001
0.008968 -0.0254 0.001
0.008968 -0.0254 -0.001
-0.008968 0.0254 0.001
-0.008968 0.0254 -0.001
0.008968 0.0254 0.001
0.008968 0.0254 -0.001
0.009272 -0.0254 0.001
0.009272 -0.0254 -0.001
[...]
CELL_DATA 2113
FIELD attributes 1
aU 1 2113 double
6714.58 1494.03 1442.04 1445.11 1448.27 1451.22 1453.45 1454.47 1454.49 1453.97
1451.73 1447.82 1444.99 1447.94 1454.78 1461.38 1467.48 1472.9 1477.52 1481.3
1484.21 1486.29 1487.58 1488.15 1488.14 1488.05 1487.41 1486.28 1484.72 1482.82
1480.66 1478.32 1475.8 1473.24 1470.77 1468.41 1466.18 1464.16 1462.38 1460.91
1459.76 1458.99 1458.68 1459.2 1460.19 1461.66 1463.62 1466.06 1468.95 1472.22
1475.78 1479.52 1483.35 1487.13 1490.8 1494.18 1497.05 1499.26 1500.76 1501.49
1501.59 1501.67 1501.2 1500.23 1498.83 1497.12 1495.22 1493.24 1491.23 1489.23
1487.24 1485.24 1483.21 1481.1 1478.85 1476.39 1473.66 1470.62 1467.23 1463.42
1459.15 1454.4 1449.16 1449.85 1457.14 1465.14 1473.69 1482.79 1492.43 1502.6
1513.29 1524.48 1536.16 1548.31 1560.93 1573.99 1587.48 1601.41 1615.77 1630.52
1645.6 1660.98 1676.66 1692.63 1708.87 1725.38 1742.12 1759.11 1776.31 1793.74
1811.37 1829.22 1847.26 1865.51 1883.95 1902.59 1921.42 1940.44 1959.65 1979.05
1998.63 2018.39 2038.33 2058.44 2078.71 2099.12 2119.67 2140.39 2161.29 2182.37
2203.63 2225.08 2246.72 2268.55 2290.57 2312.78 2335.17 2357.76 2380.54 2403.5
2426.64 2449.96 2473.46 2497.13 2520.99 2545.03 2569.27 2593.7 2618.33 2643.17
2668.2 2693.43 2718.85 2744.45 2770.23 2796.14 2822.18 2848.3 2874.54 2900.89
2927.39 2954.02 2980.79 3007.69 3034.71 3061.85 3089.11 3116.48 3143.96 3171.54
3199.22 3226.99 3254.85 3282.79 3310.81 3338.91 3367.07 3395.29 3423.56 3451.88
3480.23 3508.6 3536.98 3565.37 3593.8 3622.27 3650.79 3679.58 3708.29 3736.79
3765.23 3793.55 3821.89 3850.22 3878.53 3906.8 3935.02 3963.17 3991.27 4019.3
4047.26 4075.15 4102.96 4130.69 4158.32 4185.84 4213.25 4240.55 4267.72 4294.77
4321.68 4348.46 4375.09 4401.58 4427.91 4454.07 4480.07 4505.9 4531.55 4557.02
4582.29 4607.39 4632.29 4656.99 4681.5 4705.8 4729.88 4753.76 4777.41 4800.84
4824.05 4847.02 4869.76 4892.25 4914.51 4936.52 4958.27 4979.77 5001.02 5022
5042.72 5063.18 5083.37 5103.3 5122.97 5142.38 5161.52 5180.39 5198.99 5217.29
5235.31 5253.03 5270.46 5287.6 5304.45 5321 5337.26 5353.23 5368.91 5384.28
5399.35 5414.11 5428.56 5442.69 5456.5 5469.98 5483.15 5496.02 5508.61 5520.93
5532.96 5544.67 5556.05 5567.11 5577.85 5588.29 5598.45 5608.31 5617.87 5627.14
5636.12 5644.8 5653.17 5661.22 5668.98 5676.43 5683.58 5690.44 5697.02 5703.31
5709.32 5715.03 5720.45 5725.58 5730.42 5734.95 5739.18 5743.12 5746.75 5750.08
5753.11 5755.82 5758.23 5760.32 5762.26 5763.98 5765.42 5766.59 5767.5 5768.12
5768.48 5768.58 5768.41 5767.97 5767.28 5766.33 5765.11 5763.65 5761.93 5759.96
5757.74 5755.28 5752.58 5749.65 5746.49 5743.09 5739.46 5735.57 5731.44 5727.08
5722.49 5717.68 5712.64 5707.38 5701.9 5696.21 5690.3 5684.18 5677.85 5671.31
5664.57 5657.62 5650.47 5643.12 5635.57 5627.83 5619.89 5611.76 5603.45 5594.94
5586.25 5577.38 5568.33 5559.1 5549.69 5540.11 5530.36 5520.44 5510.35 5500.09
5489.67 5479.09 5468.35 5457.45 5446.4 5435.19 5423.84 5412.33 5400.68 5388.88
5376.94 5364.86 5352.65 5340.29 5327.8 5315.18 5302.43 5289.55 5276.53 5263.38
5250.1 5236.7 5223.19 5209.57 5195.83 5181.98 5168.02 5153.94 5139.76 5125.47
5111.07 5096.56 5081.96 5067.25 5052.45 5037.55 5022.55 5007.47 4992.29 4977.02
4961.67 4946.23 4930.7 4915.09 4899.41 4883.64 4867.8 4851.88 4835.88 4819.82
4803.68 4787.48 4771.21 4754.87 4738.47 4722 4705.47 4688.89 4672.24 4655.54
4638.78 4621.97 4605.11 4588.19 4571.22 4554.21 4537.14 4520.03 4502.87 4485.67
4468.42 4451.14 4433.83 4416.5 4399.15 4381.77 4364.34 4346.85 4329.33 4311.79
4294.21 4276.62 4259 4241.37 4223.71 4206.03 4188.33 4170.62 4152.89 4135.14
4117.38 4099.6 4081.82 4064.02 4046.21 4028.39 4010.56 3992.73 3974.89 3957.04
3939.19 3921.33 3903.48 3885.62 3867.76 3849.9 3832.04 3814.19 3796.34 3778.49
3760.66 3742.82 3724.99 3707.17 3689.36 3671.56 3653.77 3635.99 3618.2 3600.42
3582.66 3564.92 3547.18 3529.46 3511.75 3494.06 3476.38 3458.72 3441.08 3423.46
3405.86 3388.28 3370.72 3353.18 3335.66 3318.17 3300.7 3283.25 3265.83 3248.44
3231.07 3213.72 3196.41 3179.12 3161.86 3144.62 3127.42 3110.24 3093.1 3075.98
3058.9 3041.84 3024.82 3007.83 2990.87 2973.94 2957.05 2940.18 2923.36 2906.56
2889.8 2873.07 2856.36 2839.7 2823.07 2806.47 2789.91 2773.38 2756.88 2740.39
2723.95 2707.61 2691.33 2675.04 2658.76 2642.52 2626.33 2610.19 2594.09 2578.02
2561.98 2545.98 2530.01 2514.08 2498.2 2482.38 2466.62 2450.87 2435.14 2419.49
2403.89 2388.32 2372.76 2357.29 2341.94 2326.61 2311.26 2295.93 2280.64 2265.39
2250.19 2235.03 2219.91 2204.84 2189.81 2174.83 2159.89 2144.99 2130.08 2115.16
2100.27 2085.47 2070.78 2056.11 2041.46 2026.85 2012.27 1997.72 1983.21 1978.21
1986.94 1999.89 2012.81 2025.69 2038.53 2051.34 2064.12 2076.86 2089.58 2102.26
2114.9 2127.51 2140.1 2152.64 2165.16 2177.65 2190.1 2202.52 2214.91 2227.27
2239.59 2251.89 2264.16 2276.39 2288.59 2300.76 2312.9 2325.01 2337.09 2349.14
2361.16 2373.14 2385.1 2397.02 2408.91 2420.77 2432.6 2444.4 2456.16 2467.89
2479.59 2491.25 2502.88 2514.47 2526.03 2537.55 2549.03 2560.48 2571.88 2583.25
2594.57 2605.85 2617.08 2628.27 2639.41 2650.49 2661.52 2672.5 2683.41 2694.26
2705.04 2715.75 2726.37 2736.92 2747.37 2757.73 2767.98 2778.11 2788.12 2797.99
2807.7 2817.25 2826.6 2835.74 2844.64 2853.28 2861.61 2869.59 2877.16 2884.28
2890.86 2896.81 2902.01 2906.32 2909.56 2911.51 2911.85 2910.31 2907.79 2902.38
2893.73 2881.06 2863.01 2838.01 2803.83 2757.13 2692.4 2599.15 2762.77 3489.22
5404.1 12947.4 91692.1 1550.39 2821.17 2942.84 3059.97 3298.54 3985.92 6134.47
15954.8 136200 1477.37 3043.93 3090.03 3193.8 3472.67 4277.84 6879.71 20119
214945 1480.05 3523.95 3522.5 3524.19 3569.31 3826.59 4699.89 7811.96 26111.7
1482.59 3582.57 3756.65 3855.94 3912.06 4178.84 5147.84 8948.29 35597.7 1484.47
3815.43 3933.7 3969.49 4021.68 4330.48 5508.06 10307.5 51131.1 1485.53 4044.05
4081.19 4051.56 4104.68 4483.08 5917.49 12054.8 73943 1485.79 4242.82 4216.59
4180.18 4235.66 4691.43 6427.4 14425.2 104771 1485.79 4416.87 4343.43 4295.65
4375.83 4926.2 7040.01 17696.1 159549 1485.44 4591.32 4465.36 4405.16 4518.72
5190.46 7785.35 22337.6 260665 1484.68 5035.77 4971.38 4871.59 4802 4914.58
5670.31 8814.12 29280 1483.68 5142.55 5239.19 5254.38 5202.52 5333.87 6189.4
10065.9 40355.9 1482.51 5422.98 5445.51 5365.06 5296.34 5456.14 6519.74 11484.5
58788.9 1481.19 5652.88 5607.96 5463.01 5351.8 5573.46 6906.26 13385 83193.9
1479.69 5824.29 5698.1 5542.67 5443.96 5753.88 7415.95 16003.1 120487 1477.94
6001 5810.26 5635.26 5564.01 5978.44 8046.98 19646.1 183443 1476.68 6448.21
6284.81 6111.66 5932.1 5876.74 6385.98 8929.36 24992.9 324728 1477.91 6681.21
6559.61 6352.58 6151.22 6113.58 6746.92 9927.58 32967.5 1481.24 6774.3 6790.27
6694.79 6553.41 6539.05 7286.06 11256.3 45857.8 1485.05 7059.35 6999.64 6798.02
6593.46 6617.56 7587.36 12774.7 67762 1489.34 7256.71 7111.02 6887.72 6649.24
6737.46 7981.51 14839.3 93893 1494.08 7423.81 7200.99 6937.37 6698.48 6874.36
8475.04 17701.7 139040 1499.21 7594.36 7288.15 6993.82 6783.47 7074.88 9112.1
21792.6 219028 1504.69 7996.3 7765.35 7481.45 7179.41 7000.17 7417.87 9996.01
27894.5 1510.45 8067.47 8041.37 7945.27 7731.05 7606.39 8118.5 11307.8 37311.6
1516.43 8478.75 8394.82 8192.27 7930.18 7789.91 8443.26 12563.7 52626.7 1522.62
8732.36 8596.18 8262.81 7918.08 7815.62 8712.37 14193.7 75847.9 1529.26 8919.98
8689.41 8375.56 8016.5 7984.01 9164.09 16488.6 106984 1535.88 9116.87 8797.45
8430.57 8058.98 8111.61 9667.89 19638.9 162049 1542.26 9317.22 8899.68 8493
8149.52 8323.12 10336.2 24204.8 263715 1548.33 9730.9 9445.2 9063 8644.13
8334.6 8646.44 11247.5 31069.1 1554.19 9890.26 9770.26 9530.48 9212.73 8957.48
9390.7 12690.7 42339.3 1559.87 10422.7 10291.1 9944.13 9550.35 9305.72 9915.22
14270.7 61501.6 1565.25 11010.3 10899.7 10640.6 10220.8 1570.28 1574.95 1579.23
1583.08 1586.5 1589.46 1591.96 1594 1595.66 1596.94 1597.71 1598.12 1598.21
1598.25 1597.93 1597.3 1596.37 1595.14 1593.59 1591.72 1589.55 1587.11 1584.41
1581.47 1578.28 1574.86 1571.2 1567.29 1563.16 1558.83 1554.29 1549.52 1544.54
1539.4 1534.07 1528.52 1522.75 1516.77 1510.58 1504.17 1497.53 1490.65 1485.28
1487.38 1495.41 1503.71 1512.31 1521.22 1530.45 1540.04 1549.97 1560.28 1570.96
1582.02 1593.5 1605.51 1618.22 1631.99 1647.38 1665.3 1687.41 1717.24 1763.24
1845.35 2011.12 2424.17 3360.01 2088.75 9752.07 9355.78 8845.16 8326.34 9518.19
9211.94 8667.3 8173.17 7988.57 8738.32 13320 60801.9 9235.7 8932.71 8460.74
8010.45 7798.78 8369.95 11879 41815.4 9229.24 8768.1 8216 7700.27 7428.81
7855 10617.9 30661.5 8776.48 8151.22 7607.03 7289.58 7576.82 9749.88 23846.2
263272 8671.42 8120.4 7597.86 7244.64 7409.98 9111.41 19281.4 161790 8584.44
8113.01 7624.53 7245.12 7303.4 8622.45 16132.9 106802 8446.72 8093.45 7639.66
7240.23 7207.55 8219.94 13859.2 75703.9 8296.49 8022.68 7547.73 7146.53 7044.59
7832.23 12143.7 52406.2 8050.96 7788.43 7406.97 7057.24 6933.5 7549.6 10900.2
37100.1 8113.6 7663.42 7171.89 6742.68 6563.46 7047.63 9732.93 27743.3 7696.41
7143.9 6684.51 6452.06 6797.47 8923.47 21722.1 218840 7661.31 7162.92 6699.7
6419.29 6642.82 8321 17644.5 139110 7621.07 7189.86 6748.59 6436.87 6553.83
7867.37 14815.1 93983.1 7500.72 7204.11 6799.97 6468.73 6495.74 7515.65 12778.6
67870.9 7343.6 7099.95 6686.3 6360.49 6332.31 7146.63 11221.4 45916.1 7362.09
6975.74 6534.71 6183.19 6107.23 6760.4 9985.59 33069.5 7370.97 6926.66 6477.85
6103.12 5973.98 6476.04 9040.62 25135.8 324664 6996.16 6502.49 6098.29 5910.97
6278.54 8319.38 19890 183485 7015.82 6569.76 6156.15 5919.01 6163.92 7782.32
16316.9 120879 7019.17 6654.94 6257.55 5982.96 6117.25 7383.56 13782 83600.1
6951.93 6707.15 6324.26 6027.29 6072.7 7063.38 11949.8 59172.1 6818.3 6608.88
6270.04 5999.66 5995.55 6785 10585.9 40786.7 6911.39 6541.04 6133.63 5810.77
5751.82 6386.78 9408.39 29743.6 6670.4 6187.15 5819.3 5694.51 6173.46 8576.2
22933.9 260998 6749.81 6314.38 5932.22 5743.56 6078.8 7980.11 18404.3 160373
6830.58 6465.65 6102.92 5866.87 6070.46 7554.36 15267.8 105579 6872.01 6630.35
6300.72 6026.98 6113.33 7255.53 13064.4 74754.8 6850.97 6692.1 6378.5 6112.19
6120.95 7011.23 11467.5 51954.6 6688.11 6595 6377.34 6154.46 6126.23 6819.11
10265.6 36520.9 6766.91 6503.52 6182.53 5890.35 5816.93 6384.82 9148.47 27084.2
6432.85 6134.3 5881.77 5788.72 6224.26 8417.48 21210.4 215694 5831.59 5708.04
5585.6 5569.49 5973.97 7781.07 17165.7 137401 35722.4 34407 33452 32608.4
31792.1 30979.9 30170.8 29363 28556.5 27750.8 26945.5 26139.9 25332.8 24521.7
23702 22874.3 22044.6 21216.4 20392.2 19575 18771.4 17993.8 17254.7 16558.4
15906.1 15297.6 14732.5 14210.1 13729.2 13288.4 12886.2 12521 12191.1 11894.9
11630.4 11396.2 11190.4 11011.5 10857.8 10727.8 10619.8 10532.9 10466 10418.4
10389.2 10388.5 10424.7 10482.7 10562.4 10658.6 10765.6 10880.3 10998.8 11118.3
11237.1 11354.2 11468.6 11580 11688.1 11792.5 11893.2 11990.1 12083.5 12172.6
12257 12336.4 12410 12478 12540 12597.3 12650.4 12699.5 12744.2 12784
12818.9 12848.9 12873.9 12894.2 12910 12921.3 12928.3 12932.1 12934.8 12934
12929.8 12922.1 12911.3 12897.3 12880.3 12860.5 12838.2 12813.5 12786.6 12758
12727.7 12696 12663.1 12629.3 12594.8 12559.7 12524.2 12488.5 12452.7 12417
12381.4 12346.2 12311.2 12276.8 12242.8 12209.5 12176.8 12144.7 12113.4 12082.8
12052.9 12023.8 11995.5 11967.8 11941 11914.8 11889.4 11864.8 11840.9 11817.8
11795.5 11774 11753.2 11733.2 11714.1 11695.7 11678.3 11662 11647 11633.2
11620.8 11609.6 11599.7 11591 11583.3 11576.7 11570.8 11565.8 11561.3 11557.3
11553.6 11550.2 11546.9 11543.6 11540.3 11536.8 11533.1 11529.1 11524.8 11520.2
11515.2 11509.8 11504 11497.9 11491.3 11484.3 11476.9 11469.2 11461 11452.5
11443.7 11434.6 11425.1 11415.4 11405.4 11395.1 11384.6 11373.9 11363 11352
11340.7 11329.3 11317.8 11306.2 11294.4 11282.5 11270.6 11258.5 11246.4 11234.1
11221.9 11209.5 11197.1 11184.6 11172.1 11159.6 11147 11134.4 11121.8 11109.1
11096.4 11083.7 11071.1 11058.4 11045.7 11032.9 11020.1 11007.3 10994.5 10981.7
10969 10956.2 10943.5 10930.7 10917.9 10905.1 10892.3 10879.5 10866.7 10853.9
10841.1 10828.3 10815.4 10802.6 10789.7 10776.8 10763.9 10751 10738.1 10725.1
10712.2 10699.2 10686.2 10673.2 10660.2 10647.1 10634.1 10621 10607.8 10594.7
10581.5 10568.3 10555.1 10541.8 10528.5 10515.2 10501.8 10488.4 10475 10461.5
10448.1 10434.5 10421 10407.4 10393.7 10380.1 10366.4 10352.6 10338.8 10325
10311.1 10297.2 10283.3 10269.3 10255.2 10241.2 10227 10212.9 10198.7 10184.4
10170.1 10155.7 10141.4 10126.9 10112.4 10097.9 10083.3 10068.7 10054 10039.3
10024.5 10009.7 9994.86 9979.96 9965.01 9950.01 9934.97 9919.89 9904.76 9889.58
9874.36 9859.09 9843.77 9828.42 9813.01 9797.56 9782.07 9766.53 9750.94 9735.31
9719.63 9703.91 9688.14 9672.33 9656.47 9640.56 9624.62 9608.62 9592.59 9576.51
9560.39 9544.23 9528.02 9511.78 9495.5 9479.17 9462.81 9446.4 9429.96 9413.48
9396.96 9380.39 9363.78 9347.13 9330.4 9313.57 9296.61 9279.52 9262.28 9244.89
9227.34 9209.64 9191.79 9173.79 9155.66 9137.4 9119.02 9100.54 9081.97 9063.31
9044.58 9025.78 9006.93 8988.02 8969.08 8950.11 8931.11 8912.1 8893.07 8874.04
8855 8835.98 8816.96 8797.95 8778.96 8759.98 8741.03 8722.1 8703.2 8684.32
8665.48 8646.66 8627.87 8609.11 8590.39 8571.7 8553.04 8534.43 8515.87 8497.34
8478.88 8460.47 8442.13 8423.87 8405.69 8387.6 8369.6 8351.69 8333.89 8316.17
8298.56 8281.03 8263.59 8246.24 8228.96 8211.75 8194.61 8177.52 8160.5 8143.52
8126.59 8109.7 8092.84 8076.02 8059.22 8042.46 8025.72 8009.01 7992.32 7975.65
7959 7942.38 7925.79 7909.22 7892.67 7876.15 7859.66 7843.19 7826.75 7810.33
7793.95 7777.59 7761.26 7744.96 7728.69 7712.46 7696.26 7680.1 7663.97 7647.89
7631.84 7615.83 7599.86 7583.94 7568.05 7552.21 7536.41 7520.65 7504.93 7489.26
7473.62 7458.03 7442.49 7426.98 7411.52 7396.1 7380.72 7365.38 7350.09 7334.84
7319.64 7304.48 7289.37 7274.31 7259.3 7244.33 7229.42 7214.57 7199.77 7185.02
7170.33 7155.7 7141.12 7126.61 7112.15 7097.76 7083.43 7069.17 7054.97 7040.83
7026.76 7012.76 6998.83 6984.97 6971.19 6957.48 6943.85 6930.3 6916.82 6903.43
6890.11 6876.88 6863.72 6850.64 6837.64 6824.71 6811.87 6799.09 6786.39 6773.75
6761.19 6748.69 6736.26 6723.89 6711.59 6699.34 6687.16 6675.03 6662.97 6650.96
6639.02 6627.13 6615.29 6603.52 6591.8 6580.13 6568.52 6556.97 6545.46 6534.01
6522.62 6511.27 6499.98 6488.74 6477.55 6466.42 6455.33 6444.3 6433.31 6422.38
6411.5 6400.67 6389.89 6379.16 6368.48 6357.85 6347.27 6336.74 6326.26 6315.83
6305.44 6295.1 6284.8 6274.55 6264.33 6254.16 6244.03 6233.94 6223.89 6213.87
6203.9 6193.96 6184.06 6174.2 6164.38 6154.6 6144.85 6135.14 6125.47 6115.84
6106.24 6096.68 6087.15 6077.67 6068.21 6058.8 6049.42 6040.07 6030.77 6021.5
6012.26 6003.06 5993.9 5984.77 5975.68 5966.62 5957.6 5948.61 5939.66 5930.73
5921.84 5912.98 5904.15 5895.35 5886.57 5877.83 5869.11 5860.42 5851.76 5843.12
5834.51 5825.92 5817.36 5808.82 5800.3 5791.81 5783.34 5774.89 5766.46 5758.06
5749.68 5741.32 5732.98 5724.66 5716.36 5708.08 5699.82 5691.59 5683.37 5675.17
5667 5658.84 5650.7 5642.58 5634.48 5626.4 5618.33 5610.29 5602.26 5594.25
5586.25 5578.28 5570.32 5562.37 5554.44 5546.52 5538.62 5530.73 5522.85 5514.98
5507.12 5499.27 5491.43 5483.6 5475.77 5467.95 5460.14 5452.33 5444.52 5436.72
5428.92 5421.12 5413.32 5405.52 5397.73 5389.93 5382.12 5374.32 5366.51 5358.69
5350.87 5343.05 5335.21 5327.37 5319.52 5311.67 5303.8 5295.92 5288.04 5280.14
5272.23 5264.3 5256.36 5248.41 5240.44 5232.46 5224.46 5216.43 5208.39 5200.33
5192.24 5184.14 5176 5167.84 5159.65 5151.43 5143.18 5134.9 5126.58 5118.23
5109.84 5101.41 5092.93 5084.42 5075.86 5067.25 5058.59 5049.89 5041.12 5032.31
5023.44 5014.51 5005.51 4996.46 4987.34 4978.15 4968.88 4959.55 4950.14 4940.65
4931.07 4921.41 4911.67 4901.83 4891.9 4881.87 4871.73 4861.49 4851.14 4840.68
4830.09 4819.38 4808.54 4797.57 4786.45 4775.19 4763.78 4752.21 4740.47 4728.55
4716.46 4704.17 4691.69 4678.99 4666.08 4652.94 4639.56 4625.93 4612.03 4597.85
4583.38 4568.6 4553.48 4538.02 4522.19 4505.96 4489.31 4472.21 4454.63 4436.54
4417.89 4398.63 4378.73 4358.12 4336.75 4314.53 4291.39 4267.23 4241.94 4215.39
4187.44 4157.91 4126.6 4093.24 4057.56 4019.17 3977.65 3932.44 3882.84 3827.98
3766.71 3697.5 3618.26 3525.99 3416.39 3282.41 3503.84 4360.91 6352.57 13844.3
92575.1 35148 34331.6 33901.6 33541.7 33211.8 32894 32583.5 32278.5 31978.3
31681.9 31388.7 31098.3 30810.4 30524.5 30240.5 29958.2 29677.4 29398 29120.1
28843.5 28568.1 28294.1 28021.2 27749.7 27479.4 27210.3 26942.4 26675.8 26410.5
26146.5 25883.9 25622.6 25362.7 25104.4 24847.5 24592.3 24338.9 24087.2 23837.4
23589.7 23344 23100.6 22859.6 22621.1 22385.3 22152.5 21922.7 21696.2 21473.3
21254.3 21039.5 20829.2 20623.8 20423.7 20229.4 20041.7 19861.2 19689.2 19527.2
19376.7 19245 19137.3
