# vtk DataFile Version 2.0
sampleSurface
ASCII
DATASET POLYDATA
POINTS 4338 double
-0.000152 0 0.001
-0.000152 0 -0.001
0 -0.00025 0.001
0 -0.00025 -0.001
-0.000456 0 -0.001
-0.000456 0 0.001
0 -0.0005 0.001
0 -0.0005 -0.001
0 -0.00075 0.001
0 -0.00075 -0.001
-0.00076 0 -0.001
-0.00076 0 0.001
0 -0.001 0.001
0 -0.001 -0.001
-0.001064 0 -0.001
-0.001064 0 0.001
0 -0.00125 0.001
0 -0.00125 -0.001
-0.001368 0 -0.001
-0.001368 0 0.001
0 -0.0015 0.001
0 -0.0015 -0.001
-0.001672 0 -0.001
-0.001672 0 0.001
0 -0.00175 0.001
0 -0.00175 -0.001
-0.001976 0 -0.001
-0.001976 0 0.001
0 -0.002 0.001
0 -0.002 -0.001
0 -0.00225 0.001
0 -0.00225 -0.001
-0.00228 0 -0.001
-0.00228 0 0.001
0 -0.0025 0.001
0 -0.0025 -0.001
-0.002584 0 -0.001
-0.002584 0 0.001
0 -0.00275 0.001
0 -0.00275 -0.001
-0.002888 0 -0.001
-0.002888 0 0.001
0 -0.003 0.001
0 -0.003 -0.001
-0.003192 0 -0.001
-0.003192 0 0.001
0 -0.00325 0.001
0 -0.00325 -0.001
-0.003496 0 -0.001
-0.003496 0 0.001
0 -0.0035 0.001
0 -0.0035 -0.001
0 -0.00375 0.001
0 -0.00375 -0.001
-0.0038 0 -0.001
-0.0038 0 0.001
0 -0.004 0.001
0 -0.004 -0.001
-0.004104 0 -0.001
-0.004104 0 0.001
0 -0.00425 0.001
0 -0.00425 -0.001
-0.004408 0 -0.001
-0.004408 0 0.001
0 -0.0045 0.001
0 -0.0045 -0.001
-0.004712 0 -0.001
-0.004712 0 0.001
0 -0.00475 0.001
0 -0.00475 -0.001
0 -0.005 0.001
0 -0.005 -0.001
-0.005016 0 -0.001
-0.005016 0 0.001
0 -0.00525 0.001
0 -0.00525 -0.001
-0.00532 0 -0.001
-0.00532 0 0.001
0 -0.0055 0.001
0 -0.0055 -0.001
-0.005624 0 -0.001
-0.005624 0 0.001
0 -0.00575 0.001
0 -0.00575 -0.001
-0.005928 0 -0.001
-0.005928 0 0.001
0 -0.006 0.001
0 -0.006 -0.001
-0.006232 0 -0.001
-0.006232 0 0.001
0 -0.00625 0.001
0 -0.00625 -0.001
0 -0.0065 0.001
0 -0.0065 -0.001
-0.006536 0 -0.001
-0.006536 0 0.001
0 -0.00675 0.001
0 -0.00675 -0.001
-0.00684 0 -0.001
-0.00684 0 0.001
0 -0.007 0.001
0 -0.007 -0.001
-0.007144 0 -0.001
-0.007144 0 0.001
0 -0.00725 0.001
0 -0.00725 -0.001
-0.007448 0 -0.001
-0.007448 0 0.001
0 -0.0075 0.001
0 -0.0075 -0.001
0 -0.00775 0.001
0 -0.00775 -0.001
-0.007752 0 -0.001
-0.007752 0 0.001
0 -0.008 0.001
0 -0.008 -0.001
-0.008056 0 -0.001
-0.008056 0 0.001
0 -0.00825 0.001
0 -0.00825 -0.001
-0.00836 0 -0.001
-0.00836 0 0.001
0 -0.0085 0.001
0 -0.0085 -0.001
-0.008664 0 -0.001
-0.008664 0 0.001
0 -0.00875 0.001
0 -0.00875 -0.001
-0.008968 0 -0.001
-0.008968 0 0.001
0 -0.009 0.001
0 -0.009 -0.001
0 -0.00925 0.001
0 -0.00925 -0.001
-0.009272 0 -0.001
-0.009272 0 0.001
0 -0.0095 0.001
0 -0.0095 -0.001
-0.009576 0 -0.001
-0.009576 0 0.001
0 -0.00975 0.001
0 -0.00975 -0.001
-0.00988 0 -0.001
-0.00988 0 0.001
0 -0.01 0.001
0 -0.01 -0.001
-0.010184 0 -0.001
-0.010184 0 0.001
0 -0.01025 0.001
0 -0.01025 -0.001
-0.010488 0 -0.001
-0.010488 0 0.001
0 -0.0105 0.001
0 -0.0105 -0.001
0 -0.01075 0.001
0 -0.01075 -0.001
-0.010792 -5.78241e-19 -0.001
-0.010792 -5.78241e-19 0.001
0 -0.011 0.001
0 -0.011 -0.001
-0.011096 0 -0.001
-0.011096 0 0.001
0 -0.01125 0.001
0 -0.01125 -0.001
-0.0114 0 -0.001
-0.0114 0 0.001
0 -0.0115 0.001
0 -0.0115 -0.001
-0.011704 0 -0.001
-0.011704 0 0.001
0 -0.01175 0.001
0 -0.01175 -0.001
0 -0.012 0.001
0 -0.012 -0.001
-0.012008 0 -0.001
-0.012008 0 0.001
0 -0.01225 0.001
0 -0.01225 -0.001
-0.012312 0 -0.001
-0.012312 0 0.001
0 -0.0125 0.001
0 -0.0125 -0.001
-0.012616 0 -0.001
-0.012616 0 0.001
0 -0.01275 0.001
0 -0.01275 -0.001
-0.01292 0 -0.001
-0.01292 0 0.001
0 -0.013 0.001
0 -0.013 -0.001
-0.013224 0 -0.001
-0.013224 0 0.001
0 -0.01325 0.001
0 -0.01325 -0.001
0 -0.0135 0.001
0 -0.0135 -0.001
-0.013528 0 -0.001
-0.013528 0 0.001
0 -0.01375 0.001
0 -0.01375 -0.001
-0.013832 0 -0.001
-0.013832 0 0.001
0 -0.014 0.001
0 -0.014 -0.001
-0.014136 0 -0.001
-0.014136 0 0.001
0 -0.01425 0.001
0 -0.01425 -0.001
-0.01444 0 -0.001
-0.01444 0 0.001
0 -0.0145 0.001
0 -0.0145 -0.001
-0.014744 0 -0.001
-0.014744 0 0.001
0 -0.01475 0.001
0 -0.01475 -0.001
0 -0.015 0.001
0 -0.015 -0.001
-0.015048 0 -0.001
-0.015048 0 0.001
0 -0.01525 0.001
0 -0.01525 -0.001
-0.015352 0 -0.001
-0.015352 0 0.001
0 -0.0155 0.001
0 -0.0155 -0.001
-0.015656 0 -0.001
-0.015656 0 0.001
0 -0.01575 0.001
0 -0.01575 -0.001
-0.01596 0 -0.001
-0.01596 0 0.001
0 -0.016 0.001
0 -0.016 -0.001
0 -0.01625 0.001
0 -0.01625 -0.001
-0.016264 0 -0.001
-0.016264 0 0.001
0 -0.0165 0.001
0 -0.0165 -0.001
-0.016568 0 -0.001
-0.016568 0 0.001
0 -0.01675 0.001
0 -0.01675 -0.001
-0.016872 0 -0.001
-0.016872 0 0.001
0 -0.017 0.001
0 -0.017 -0.001
-0.017176 0 -0.001
-0.017176 0 0.001
0 -0.01725 0.001
0 -0.01725 -0.001
-0.01748 0 -0.001
-0.01748 0 0.001
0 -0.0175 0.001
0 -0.0175 -0.001
0 -0.01775 0.001
0 -0.01775 -0.001
-0.017784 0 -0.001
-0.017784 0 0.001
0 -0.018 0.001
0 -0.018 -0.001
-0.018088 0 -0.001
-0.018088 0 0.001
0 -0.01825 0.001
0 -0.01825 -0.001
-0.018392 0 -0.001
-0.018392 0 0.001
0 -0.0185 0.001
0 -0.0185 -0.001
-0.018696 0 -0.001
-0.018696 0 0.001
0 -0.01875 0.001
0 -0.01875 -0.001
0 -0.019 0.001
0 -0.019 -0.001
-0.019 0 -0.001
-0.019 0 0.001
0 -0.01925 0.001
0 -0.01925 -0.001
0 -0.0195 0.001
0 -0.0195 -0.001
0 -0.01975 0.001
0 -0.01975 -0.001
0 -0.02 0.001
0 -0.02 -0.001
0 -0.02025 0.001
0 -0.02025 -0.001
0 -0.0205 0.001
0 -0.0205 -0.001
0 -0.02075 0.001
0 -0.02075 -0.001
0 -0.021 0.001
0 -0.021 -0.001
0 -0.02125 0.001
0 -0.02125 -0.001
0 -0.0215 0.001
0 -0.0215 -0.001
0 -0.02175 0.001
0 -0.02175 -0.001
0 -0.022 0.001
0 -0.022 -0.001
0 -0.02225 0.001
0 -0.02225 -0.001
0 -0.0225 0.001
0 -0.0225 -0.001
0 -0.02275 0.001
0 -0.02275 -0.001
0 -0.023 0.001
0 -0.023 -0.001
0 -0.02325 0.001
0 -0.02325 -0.001
0 -0.0235 0.001
0 -0.0235 -0.001
0 -0.02375 0.001
0 -0.02375 -0.001
0 -0.024 0.001
0 -0.024 -0.001
0 -0.02425 0.001
0 -0.02425 -0.001
0 -0.0245 0.001
0 -0.0245 -0.001
0 -0.02475 0.001
0 -0.02475 -0.001
0 -0.025 0.001
0 -0.025 -0.001
1.00662e-06 -0.02525 0.001
1.00662e-06 -0.02525 -0.001
0.000152 -0.0254 -0.001
0.000152 -0.0254 0.001
-0.000152 0.0254 0.001
-0.000152 0.0254 -0.001
0.000152 0.0254 0.001
0.000152 0.0254 -0.001
0.000456 -0.0254 0.001
0.000456 -0.0254 -0.001
-0.000456 0.0254 0.001
-0.000456 0.0254 -0.001
0.000456 0.0254 0.001
0.000456 0.0254 -0.001
0.00076 -0.0254 0.001
0.00076 -0.0254 -0.001
-0.00076 0.0254 0.001
-0.00076 0.0254 -0.001
0.00076 0.0254 0.001
0.00076 0.0254 -0.001
0.001064 -0.0254 0.001
0.001064 -0.0254 -0.001
-0.001064 0.0254 0.001
-0.001064 0.0254 -0.001
0.001064 0.0254 0.001
0.001064 0.0254 -0.001
0.001368 -0.0254 0.001
0.001368 -0.0254 -0.001
-0.001368 0.0254 0.001
-0.001368 0.0254 -0.001
0.001368 0.0254 0.001
0.001368 0.0254 -0.001
0.001672 -0.0254 0.001
0.001672 -0.0254 -0.001
-0.001672 0.0254 0.001
-0.001672 0.0254 -0.001
0.001672 0.0254 0.001
0.001672 0.0254 -0.001
0.001976 -0.0254 0.001
0.001976 -0.0254 -0.001
-0.001976 0.0254 0.001
-0.001976 0.0254 -0.001
0.001976 0.0254 0.001
0.001976 0.0254 -0.001
0.00228 -0.0254 0.001
0.00228 -0.0254 -0.001
-0.00228 0.0254 0.001
-0.00228 0.0254 -0.001
0.00228 0.0254 0.001
0.00228 0.0254 -0.001
0.002584 -0.0254 0.001
0.002584 -0.0254 -0.001
-0.002584 0.0254 0.001
-0.002584 0.0254 -0.001
0.002584 0.0254 0.001
0.002584 0.0254 -0.001
0.002888 -0.0254 0.001
0.002888 -0.0254 -0.001
-0.002888 0.0254 0.001
-0.002888 0.0254 -0.001
0.002888 0.0254 0.001
0.002888 0.0254 -0.001
0.003192 -0.0254 0.001
0.003192 -0.0254 -0.001
-0.003192 0.0254 0.001
-0.003192 0.0254 -0.001
0.003192 0.0254 0.001
0.003192 0.0254 -0.001
0.003496 -0.0254 0.001
0.003496 -0.0254 -0.001
-0.003496 0.0254 0.001
-0.003496 0.0254 -0.001
0.003496 0.0254 0.001
0.003496 0.0254 -0.001
0.0038 -0.0254 0.001
0.0038 -0.0254 -0.001
-0.0038 0.0254 0.001
-0.0038 0.0254 -0.001
0.0038 0.0254 0.001
0.0038 0.0254 -0.001
0.004104 -0.0254 0.001
0.004104 -0.0254 -0.001
-0.004104 0.0254 0.001
-0.004104 0.0254 -0.001
0.004104 0.0254 0.001
0.004104 0.0254 -0.001
0.004408 -0.0254 0.001
0.004408 -0.0254 -0.001
-0.004408 0.0254 0.001
-0.004408 0.0254 -0.001
0.004408 0.0254 0.001
0.004408 0.0254 -0.001
0.004712 -0.0254 0.001
0.004712 -0.0254 -0.001
-0.004712 0.0254 0.001
-0.004712 0.0254 -0.001
0.004712 0.0254 0.001
0.004712 0.0254 -0.001
0.005016 -0.0254 0.001
0.005016 -0.0254 -0.001
-0.005016 0.0254 0.001
-0.005016 0.0254 -0.001
0.005016 0.0254 0.001
0.005016 0.0254 -0.001
0.00532 -0.0254 0.001
0.00532 -0.0254 -0.001
-0.00532 0.0254 0.001
-0.00532 0.0254 -0.001
0.00532 0.0254 0.001
0.00532 0.0254 -0.001
0.005624 -0.0254 0.001
0.005624 -0.0254 -0.001
-0.005624 0.0254 0.001
-0.005624 0.0254 -0.001
0.005624 0.0254 0.001
0.005624 0.0254 -0.001
0.005928 -0.0254 0.001
0.005928 -0.0254 -0.001
-0.005928 0.0254 0.001
-0.005928 0.0254 -0.001
0.005928 0.0254 0.001
0.005928 0.0254 -0.001
0.006232 -0.0254 0.001
0.006232 -0.0254 -0.001
-0.006232 0.0254 0.001
-0.006232 0.0254 -0.001
0.006232 0.0254 0.001
0.006232 0.0254 -0.001
0.006536 -0.0254 0.001
0.006536 -0.0254 -0.001
-0.006536 0.0254 0.001
-0.006536 0.0254 -0.001
0.006536 0.0254 0.001
0.006536 0.0254 -0.001
0.00684 -0.0254 0.001
0.00684 -0.0254 -0.001
-0.00684 0.0254 0.001
-0.00684 0.0254 -0.001
0.00684 0.0254 0.001
0.00684 0.0254 -0.001
0.007144 -0.0254 0.001
0.007144 -0.0254 -0.001
-0.007144 0.0254 0.001
-0.007144 0.0254 -0.001
0.007144 0.0254 0.001
0.007144 0.0254 -0.001
0.007448 -0.0254 0.001
0.007448 -0.0254 -0.001
-0.007448 0.0254 0.001
-0.007448 0.0254 -0.001
0.007448 0.0254 0.001
0.007448 0.0254 -0.001
0.007752 -0.0254 0.001
0.007752 -0.0254 -0.001
-0.007752 0.0254 0.001
-0.007752 0.0254 -0.001
0.007752 0.0254 0.001
0.007752 0.0254 -0.001
0.008056 -0.0254 0.001
0.008056 -0.0254 -0.001
-0.008056 0.0254 0.001
-0.008056 0.0254 -0.001
0.008056 0.0254 0.001
0.008056 0.0254 -0.001
0.00836 -0.0254 0.001
0.00836 -0.0254 -0.001
-0.00836 0.0254 0.001
-0.00836 0.0254 -0.001
0.00836 0.0254 0.001
0.00836 0.0254 -0.001
0.008664 -0.0254 0.001
0.008664 -0.0254 -0.001
-0.008664 0.0254 0.001
-0.008664 0.0254 -0.001
0.008664 0.0254 0.001
0.008664 0.0254 -0.001
0.008968 -0.0254 0.001
0.008968 -0.0254 -0.001
-0.008968 0.0254 0.001
-0.008968 0.0254 -0.001
0.008968 0.0254 0.001
0.008968 0.0254 -0.001
0.009272 -0.0254 0.001
0.009272 -0.0254 -0.001
[...]
CELL_DATA 2113
FIELD attributes 1
p 1 2113 double
-8.75916 -8.75922 -8.75927 -8.75927 -8.7592 -8.75904 -8.75879 -8.75843 -8.75799 -8.75748
-8.75695 -8.75646 -8.75605 -8.75576 -8.7556 -8.75557 -8.75568 -8.75589 -8.7562 -8.75658
-8.757 -8.75745 -8.75789 -8.75832 -8.75872 -8.75908 -8.75939 -8.75965 -8.75985 -8.76
-8.76009 -8.76014 -8.76015 -8.76011 -8.76004 -8.75995 -8.75986 -8.75976 -8.75966 -8.75958
-8.75952 -8.75948 -8.75949 -8.75953 -8.75964 -8.7598 -8.76004 -8.76036 -8.76077 -8.76129
-8.76193 -8.76269 -8.76359 -8.76464 -8.76583 -8.7672 -8.76874 -8.77045 -8.77234 -8.7744
-8.77661 -8.77897 -8.78147 -8.78413 -8.78692 -8.78986 -8.79295 -8.79618 -8.79958 -8.80313
-8.80687 -8.8108 -8.81493 -8.81927 -8.82382 -8.82859 -8.8336 -8.83883 -8.8443 -8.85
-8.85593 -8.86211 -8.86852 -8.87517 -8.88206 -8.88918 -8.89654 -8.90412 -8.91194 -8.91998
-8.92825 -8.93675 -8.94546 -8.95439 -8.96354 -8.97288 -8.98243 -8.99218 -9.0021 -9.0122
-9.02247 -9.0329 -9.0435 -9.05427 -9.06519 -9.07627 -9.08749 -9.09885 -9.11034 -9.12195
-9.13369 -9.14555 -9.15751 -9.16958 -9.18174 -9.19399 -9.20634 -9.21876 -9.23126 -9.24383
-9.25646 -9.26915 -9.2819 -9.2947 -9.30754 -9.32042 -9.33333 -9.34627 -9.35922 -9.37218
-9.38515 -9.39812 -9.41108 -9.42403 -9.43697 -9.44988 -9.46275 -9.47559 -9.48839 -9.50113
-9.51382 -9.52645 -9.53901 -9.55148 -9.56388 -9.57618 -9.58839 -9.60048 -9.61246 -9.62431
-9.63603 -9.64761 -9.65904 -9.6703 -9.68141 -9.69234 -9.7031 -9.71367 -9.72408 -9.73429
-9.74429 -9.75408 -9.76364 -9.77297 -9.78205 -9.79089 -9.79947 -9.80778 -9.81582 -9.82358
-9.83105 -9.83821 -9.84507 -9.85162 -9.85784 -9.86373 -9.86928 -9.87449 -9.87934 -9.88383
-9.88795 -9.89169 -9.89505 -9.89803 -9.9006 -9.90275 -9.90458 -9.90619 -9.90725 -9.90756
-9.90735 -9.90679 -9.9059 -9.90455 -9.90274 -9.90045 -9.89769 -9.89443 -9.89069 -9.88646
-9.88172 -9.87647 -9.87072 -9.86444 -9.85764 -9.85031 -9.84245 -9.83406 -9.82512 -9.81564
-9.80562 -9.79504 -9.7839 -9.77221 -9.75996 -9.74714 -9.73376 -9.71981 -9.70529 -9.69019
-9.67451 -9.65826 -9.64143 -9.62402 -9.60602 -9.58744 -9.56827 -9.54852 -9.52818 -9.50725
-9.48573 -9.46362 -9.44092 -9.41764 -9.39376 -9.3693 -9.34425 -9.31861 -9.29239 -9.26558
-9.23818 -9.21021 -9.18165 -9.15252 -9.1228 -9.09251 -9.06165 -9.03021 -8.99819 -8.96561
-8.93246 -8.89874 -8.86446 -8.82962 -8.79422 -8.75828 -8.72178 -8.68474 -8.64716 -8.60904
-8.57038 -8.5312 -8.49148 -8.45125 -8.41049 -8.36922 -8.32745 -8.28518 -8.24242 -8.19917
-8.15542 -8.11119 -8.06646 -8.02126 -7.97558 -7.92944 -7.88284 -7.83578 -7.78826 -7.74029
-7.69188 -7.64301 -7.5937 -7.54395 -7.49377 -7.44319 -7.39219 -7.34079 -7.28899 -7.23679
-7.1842 -7.13123 -7.07787 -7.02414 -6.97004 -6.91558 -6.86076 -6.80559 -6.75008 -6.69424
-6.63807 -6.58157 -6.52474 -6.4676 -6.41015 -6.35239 -6.29433 -6.23597 -6.17733 -6.1184
-6.0592 -5.99972 -5.93998 -5.87998 -5.81972 -5.75922 -5.69848 -5.6375 -5.57629 -5.51485
-5.4532 -5.39133 -5.32926 -5.26698 -5.2045 -5.14182 -5.07895 -5.01589 -4.95266 -4.88926
-4.82569 -4.76197 -4.69809 -4.63407 -4.5699 -4.50559 -4.44115 -4.37658 -4.31189 -4.24709
-4.18217 -4.11714 -4.05201 -3.98679 -3.92147 -3.85607 -3.79058 -3.72502 -3.65938 -3.59368
-3.52791 -3.46209 -3.39621 -3.33028 -3.26431 -3.1983 -3.13226 -3.06618 -3.00008 -2.93395
-2.86781 -2.80165 -2.73548 -2.66931 -2.60314 -2.53697 -2.47081 -2.40466 -2.33853 -2.27241
-2.20632 -2.14025 -2.07422 -2.00822 -1.94226 -1.87634 -1.81046 -1.74463 -1.67886 -1.61314
-1.54749 -1.48191 -1.4164 -1.35095 -1.28558 -1.22029 -1.15508 -1.08995 -1.0249 -0.959947
-0.895084 -0.830317 -0.765648 -0.70108 -0.636616 -0.57226 -0.508014 -0.44388 -0.379862 -0.315961
-0.252182 -0.188526 -0.124995 -0.0615935 0.00167764 0.0648156 0.127818 0.190682 0.253406 0.315988
0.378425 0.440715 0.502856 0.564846 0.626683 0.688365 0.749889 0.811254 0.872458 0.9335
0.994376 1.05509 1.11563 1.176 1.2362 1.29622 1.35607 1.41574 1.47524 1.53455
1.59368 1.65263 1.71139 1.76997 1.82837 1.88659 1.94463 2.00248 2.06014 2.1176
2.17487 2.23195 2.28883 2.34551 2.402 2.45828 2.51437 2.57025 2.62594 2.68142
2.7367 2.79178 2.84665 2.90132 2.95579 3.01004 3.06409 3.11794 3.17157 3.225
3.27822 3.33123 3.38403 3.43662 3.48899 3.54116 3.59312 3.64486 3.6964 3.74772
3.79882 3.84972 3.9004 3.95088 4.00113 4.05118 4.10101 4.15063 4.20003 4.24921
4.29817 4.34693 4.39547 4.44379 4.49191 4.53981 4.58749 4.63496 4.68222 4.72927
4.7761 4.82271 4.86912 4.91531 4.96129 5.00705 5.05261 5.09795 5.14308 5.188
5.2327 5.2772 5.32148 5.36556 5.40942 5.45307 5.49652 5.53975 5.58278 5.6256
5.66821 5.71061 5.75281 5.7948 5.83658 5.87816 5.91953 5.9607 6.00167 6.04243
6.08298 6.12333 6.16349 6.20344 6.24319 6.28273 6.32208 6.36122 6.40016 6.43889
6.47741 6.51575 6.55392 6.5919 6.62969 6.66727 6.70466 6.74185 6.77885 6.81565
6.85226 6.88868 6.92491 6.96095 6.99679 7.03245 7.06794 7.10325 7.13837 7.17328
7.20802 7.24256 7.27689 7.31104 7.34501 7.37882 7.41246 7.44591 7.47918 7.51227
7.54518 7.57791 7.61047 7.64284 7.67504 7.70707 7.73892 7.77059 7.80208 7.83341
7.86459 7.89559 7.9264 7.95704 7.98752 8.01782 8.04796 8.07793 8.10773 8.13737
8.16684 8.19615 8.2253 8.25428 8.28309 8.31175 8.34024 8.36857 8.39674 8.42474
8.45259 8.48028 8.5078 8.53517 8.56239 8.58944 8.61634 8.64308 8.66967 8.6961
8.72238 8.7485 8.77447 8.80029 8.82596 8.85147 8.87684 8.90205 8.92711 8.95203
8.9768 9.00141 9.02588 9.05021 9.07439 9.09842 9.1223 9.14604 9.16964 9.1931
9.21641 9.23958 9.26261 9.28549 9.30824 9.33085 9.35332 9.37565 9.39785 9.41991
9.44183 9.46362 9.48527 9.5068 9.52819 9.54945 9.57059 9.59159 9.61247 9.63323
9.65386 9.67437 9.69477 9.71504 9.73521 9.75526 9.77521 9.79505 9.81479 9.83443
9.85398 9.87345 9.89284 9.91216 9.93141 9.95061 9.96977 9.9889 10.008 10.0271
10.0463 10.0655 10.0848 10.1042 10.1238 10.1437 10.1638 10.1844 10.2054 10.2271
10.2497 10.2732 10.298 10.3245 10.3532 10.3847 10.4199 10.4599 10.5043 10.5345
10.5543 10.5713 10.5816 -8.75912 10.6173 10.6312 10.6382 10.6356 10.6345 10.6391
10.6513 10.6716 -8.75907 10.7113 10.6898 10.6768 10.6746 10.6759 10.6797 10.6909
10.7102 -8.75906 10.7424 10.7672 10.7676 10.7496 10.7288 10.7171 10.715 10.7194
-8.75911 10.7977 10.8678 10.8724 10.8251 10.7708 10.742 10.7335 10.7396 -8.75921
10.8298 10.8706 10.855 10.8033 10.7599 10.7372 10.7328 10.7504 -8.75935 10.8357
10.8456 10.808 10.7586 10.7289 10.7131 10.7113 10.7415 -8.75949 10.8317 10.8028
10.7552 10.7113 10.6836 10.6683 10.6694 10.7115 -8.75963 10.8105 10.7504 10.687
10.6423 10.6159 10.6013 10.6073 10.6596 -8.75977 10.7657 10.6687 10.5863 10.5417
10.5152 10.4987 10.5054 10.552 -8.75991 10.6259 10.6499 10.5942 10.5209 10.4608
10.4181 10.3916 10.3794 -8.76004 10.5459 10.6476 10.6197 10.4911 10.3697 10.2988
10.2589 10.2589 -8.76018 10.4309 10.4719 10.4024 10.2846 10.1924 10.1321 10.0998
10.1282 -8.76033 10.301 10.28 10.1802 10.0682 9.99081 9.94092 9.91709 9.96935
-8.7605 10.1604 10.078 9.95882 9.84929 9.77601 9.72831 9.71065 9.78431 -8.76069
9.98973 9.85177 9.70646 9.60001 9.52967 9.48024 9.46507 9.53761 -8.7609 9.65786
9.71422 9.61424 9.47954 9.3653 9.28589 9.23026 9.21329 9.29628 -8.76112 9.43949
9.47734 9.3505 9.19483 9.07375 8.98872 8.92973 8.90683 -8.76136 9.18256 9.27746
9.18521 8.99209 8.81965 8.70138 8.62542 8.61955 -8.76162 8.91138 8.94999 8.80322
8.59531 8.44359 8.34373 8.27839 8.30589 -8.76188 8.62406 8.54747 8.37605 8.19382
8.05745 7.96429 7.9088 7.98353 -8.76215 8.31977 8.16488 7.95687 7.76977 7.64542
7.55974 7.51496 7.62557 -8.76241 7.98402 7.7396 7.49389 7.32039 7.20579 7.12087
7.08169 7.18974 -8.76266 7.38551 7.4573 7.26882 7.03858 6.86237 6.74434 6.66121
6.58974 -8.76289 6.98667 7.21227 7.11363 6.7925 6.4954 6.31294 6.18772 6.12766
-8.76309 6.55357 6.67076 6.49715 6.19703 5.94598 5.77809 5.66024 5.64448 -8.76328
6.09124 6.11231 5.85906 5.54322 5.32973 5.19145 5.08848 5.12674 -8.76342 5.62047
5.47554 5.20678 4.93449 4.73159 4.58865 4.49049 4.57897 -8.76348 5.11699 4.85921
4.54032 4.26046 4.07526 3.94177 3.85635 3.99392 -8.76344 4.57329 4.18075 3.80698
3.55097 3.38117 3.24789 3.16646 3.3195 -8.76332 3.60869 3.70163 3.40511 3.05355
2.78927 2.61421 2.48025 2.39133 -8.76313 2.91702 3.10029 2.85301 2.43857 2.08621
1.84383 1.65631 1.56056 -8.76287 2.14291 2.20769 1.85695 1.40356 1.05578 0.806633
0.591688 0.46102 -8.76252 1.15204 1.00371 0.621727 0.119043 -8.76208 -8.76156 -8.76094
-8.76023 -8.75943 -8.75854 -8.75758 -8.75654 -8.75543 -8.75426 -8.75303 -8.75174 -8.75041
-8.74905 -8.74765 -8.74622 -8.74476 -8.74327 -8.74177 -8.74025 -8.73873 -8.73721 -8.73569
-8.73418 -8.73268 -8.73119 -8.72972 -8.72829 -8.72688 -8.72551 -8.72418 -8.72289 -8.72164
-8.72044 -8.71929 -8.71819 -8.71715 -8.71618 -8.71528 -8.71445 -8.71371 -8.71304 -8.71247
-8.71199 -8.71162 -8.71137 -8.71123 -8.71122 -8.71134 -8.71161 -8.71203 -8.71262 -8.71339
-8.71435 -8.71551 -8.71688 -8.71848 -8.72034 -8.72249 -8.72499 -8.72796 -8.73155 -8.73599
-8.74186 -8.75121 -8.7701 -8.83007 -9.02723 0.991471 0.766807 0.36901 -0.00433831 1.58811
1.58654 1.18735 0.781246 0.593473 0.503731 0.429261 0.429021 2.18412 2.27993 1.93891
1.53444 1.32705 1.22629 1.15071 1.12017 2.7789 2.81931 2.44785 2.07252 1.90794
1.84168 1.79373 1.7673 3.61378 3.0974 2.67608 2.52815 2.47763 2.43046 2.399
2.54266 4.11983 3.72356 3.33406 3.156 3.08672 3.03506 3.00657 3.1545 4.5936
4.31515 3.96341 3.75544 3.66122 3.60194 3.56408 3.67502 5.01059 4.87269 4.56407
4.32708 4.20812 4.14265 4.09915 4.1727 5.41665 5.42605 5.12667 4.82547 4.69302
4.63426 4.59222 4.63865 5.79348 5.89888 5.66669 5.36493 5.20443 5.12869 5.07916
5.06647 6.20051 6.22792 5.93884 5.66192 5.54953 5.51114 5.48874 5.47296 6.77772
6.38526 6.07225 5.9698 5.94207 5.91948 5.9092 6.01815 7.13202 6.82518 6.52098
6.39285 6.35393 6.33046 6.32366 6.45823 7.45356 7.23828 6.95911 6.80638 6.74798
6.71785 6.70617 6.80871 7.71796 7.63381 7.39026 7.20753 7.12404 7.08501 7.06604
7.12771 7.976 7.99113 7.76123 7.5357 7.44211 7.40692 7.38827 7.42264 8.26175
8.26464 8.02661 7.81044 7.73035 7.70687 7.69771 7.70767 8.53463 8.56002 8.32457
8.10755 8.02697 8.00758 8.00115 8.00341 8.10469 8.95349 8.64504 8.39551 8.31606
8.29955 8.29079 8.29335 8.38758 9.20962 8.96999 8.72299 8.61795 8.59005 8.57906
8.58391 8.69943 9.43749 9.28373 9.05575 8.92443 8.87587 8.85626 8.85342 8.94497
9.63597 9.59931 9.38614 9.21322 9.14305 9.11723 9.11022 9.18228 9.82792 9.87581
9.69789 9.49861 9.40655 9.3703 9.35539 9.37859 10.0573 10.0673 9.86093 9.67231
9.60255 9.58435 9.5811 9.59218 10.4465 10.1358 9.90784 9.84338 9.83063 9.82402
9.83056 9.92147 10.6968 10.4453 10.213 10.1222 10.0971 10.0854 10.0956 10.2167
10.9394 10.7618 10.5437 10.4205 10.37 10.3458 10.3436 10.4463 11.1698 11.0909
10.8959 10.7371 10.6556 10.6155 10.6022 10.6779 11.4246 11.4593 11.2738 11.0577
10.9472 10.8949 10.8686 10.9134 11.6939 11.7972 11.6574 11.4284 11.2846 11.2088
11.1661 11.1652 12.0114 12.0405 11.8514 11.6473 11.5415 11.489 11.4577 11.4408
12.5136 12.2813 12.0651 11.9472 11.877 11.8237 11.8034 11.8805 12.8903 12.7248
12.5463 12.426 12.3426 12.2715 12.2281 12.2945 -2.67294 -4.10333 -4.82508 -5.05641
-5.20542 -5.36864 -5.52577 -5.65887 -5.77274 -5.87657 -5.97505 -6.06879 -6.15689 -6.24282
-6.34064 -6.45242 -6.56693 -6.682 -6.80151 -6.92866 -7.0646 -7.19906 -7.32074 -7.42959
-7.52864 -7.61929 -7.70171 -7.77591 -7.84214 -7.90072 -7.95198 -7.99633 -8.03418 -8.06605
-8.0924 -8.11376 -8.13065 -8.14352 -8.15314 -8.16073 -8.16677 -8.17118 -8.17389 -8.17476
-8.17457 -8.17033 -8.1553 -8.12531 -8.0882 -8.05227 -8.01767 -7.98397 -7.95243 -7.92425
-7.89982 -7.87906 -7.86167 -7.84733 -7.83565 -7.8263 -7.81898 -7.81342 -7.80929 -7.80634
-7.80436 -7.80364 -7.8048 -7.80794 -7.81269 -7.81785 -7.82297 -7.82809 -7.83359 -7.84002
-7.84756 -7.85607 -7.86541 -7.87547 -7.88625 -7.89763 -7.90951 -7.9217 -7.9341 -7.94647
-7.95882 -7.97132 -7.98403 -7.99697 -8.0101 -8.0234 -8.03683 -8.05036 -8.06392 -8.07747
-8.09097 -8.10437 -8.11764 -8.13075 -8.14366 -8.15636 -8.16882 -8.18102 -8.19293 -8.20456
-8.21588 -8.22689 -8.23759 -8.24799 -8.2581 -8.26791 -8.27744 -8.28669 -8.29568 -8.30443
-8.31294 -8.32123 -8.32932 -8.33718 -8.34484 -8.35227 -8.35949 -8.3665 -8.37329 -8.37988
-8.38624 -8.3924 -8.39834 -8.40408 -8.40961 -8.41494 -8.42008 -8.42498 -8.42957 -8.43383
-8.43775 -8.44132 -8.44458 -8.44754 -8.45024 -8.45272 -8.45502 -8.45716 -8.4592 -8.46115
-8.46307 -8.46496 -8.46686 -8.46877 -8.47073 -8.47274 -8.4748 -8.47692 -8.47912 -8.48138
-8.48372 -8.48612 -8.48859 -8.49112 -8.4937 -8.49633 -8.49898 -8.50166 -8.50436 -8.50706
-8.50977 -8.51246 -8.51513 -8.51777 -8.52038 -8.52295 -8.52547 -8.52794 -8.53034 -8.53269
-8.53496 -8.53716 -8.53928 -8.54131 -8.54326 -8.54511 -8.54687 -8.54852 -8.55006 -8.5515
-8.55281 -8.55402 -8.5551 -8.55606 -8.55689 -8.55759 -8.5582 -8.55873 -8.55917 -8.55952
-8.55974 -8.5598 -8.55966 -8.55918 -8.55835 -8.55729 -8.55625 -8.55524 -8.55411 -8.5528
-8.55132 -8.54968 -8.54788 -8.54592 -8.54379 -8.54149 -8.53901 -8.53636 -8.53353 -8.53052
-8.52733 -8.52395 -8.52038 -8.51663 -8.51268 -8.50853 -8.50419 -8.49966 -8.49492 -8.48997
-8.48482 -8.47947 -8.4739 -8.46812 -8.46212 -8.45591 -8.44948 -8.44282 -8.43594 -8.42883
-8.42149 -8.41392 -8.40612 -8.39808 -8.3898 -8.38128 -8.37252 -8.36352 -8.35427 -8.34478
-8.33503 -8.32503 -8.31478 -8.30427 -8.2935 -8.28248 -8.27119 -8.25963 -8.24782 -8.23573
-8.22338 -8.21076 -8.19786 -8.18469 -8.17124 -8.15752 -8.14352 -8.12924 -8.11467 -8.09982
-8.08469 -8.06927 -8.05356 -8.03756 -8.02127 -8.00469 -7.98782 -7.97065 -7.95318 -7.93542
-7.91737 -7.89901 -7.88036 -7.86141 -7.84215 -7.8226 -7.80274 -7.78258 -7.76212 -7.74136
-7.72029 -7.69892 -7.67724 -7.65525 -7.63297 -7.61037 -7.58747 -7.56426 -7.54075 -7.51693
-7.4928 -7.46836 -7.44361 -7.41856 -7.39319 -7.36752 -7.34154 -7.31525 -7.28866 -7.26175
-7.23454 -7.20702 -7.1792 -7.15107 -7.12263 -7.09389 -7.06485 -7.0355 -7.00584 -6.97589
-6.94563 -6.91507 -6.8842 -6.85303 -6.82156 -6.78979 -6.75774 -6.72541 -6.69282 -6.65995
-6.62682 -6.59343 -6.55977 -6.52585 -6.49166 -6.4572 -6.42247 -6.38748 -6.35222 -6.31669
-6.28088 -6.24481 -6.20847 -6.17186 -6.13497 -6.09782 -6.0604 -6.02272 -5.98476 -5.94654
-5.90806 -5.86931 -5.83031 -5.79104 -5.75152 -5.71174 -5.67171 -5.63142 -5.59089 -5.55012
-5.50909 -5.46783 -5.42633 -5.38459 -5.34261 -5.30041 -5.25798 -5.21532 -5.17245 -5.12935
-5.08603 -5.04249 -4.99872 -4.95473 -4.91052 -4.86609 -4.82144 -4.77658 -4.73151 -4.68622
-4.64074 -4.59505 -4.54916 -4.50309 -4.45682 -4.41038 -4.36375 -4.31695 -4.26998 -4.22284
-4.17554 -4.12807 -4.08046 -4.03268 -3.98476 -3.9367 -3.88849 -3.84014 -3.79165 -3.74303
-3.69428 -3.6454 -3.5964 -3.54728 -3.49803 -3.44867 -3.3992 -3.34961 -3.29992 -3.25012
-3.20021 -3.1502 -3.10009 -3.04989 -2.99958 -2.94919 -2.8987 -2.84813 -2.79747 -2.74672
-2.6959 -2.64499 -2.59402 -2.54297 -2.49185 -2.44066 -2.3894 -2.33809 -2.28671 -2.23528
-2.1838 -2.13226 -2.08067 -2.02904 -1.97736 -1.92563 -1.87387 -1.82206 -1.77023 -1.71835
-1.66644 -1.61451 -1.56254 -1.51055 -1.45853 -1.40649 -1.35443 -1.30235 -1.25025 -1.19814
-1.14602 -1.09389 -1.04174 -0.989596 -0.937444 -0.885291 -0.833138 -0.780987 -0.728839 -0.676697
-0.624561 -0.572433 -0.520315 -0.468208 -0.416113 -0.364033 -0.311968 -0.25992 -0.207892 -0.155885
-0.1039 -0.0519409 -8.37498e-06 0.0518952 0.103768 0.155607 0.207412 0.259179 0.310908 0.362595
0.414239 0.46584 0.517394 0.5689 0.620357 0.671763 0.723117 0.774417 0.825662 0.87685
0.92798 0.979051 1.03006 1.08101 1.13189 1.18271 1.23347 1.28415 1.33477 1.38532
1.4358 1.48621 1.53655 1.58682 1.63701 1.68712 1.73716 1.78712 1.837 1.88681
1.93654 1.98618 2.03575 2.08523 2.13463 2.18395 2.23318 2.28232 2.33138 2.38035
2.42922 2.47801 2.52671 2.57532 2.62384 2.67226 2.72059 2.76882 2.81696 2.865
2.91295 2.96081 3.00856 3.05622 3.10379 3.15126 3.19863 3.2459 3.29307 3.34015
3.38713 3.43402 3.4808 3.52749 3.57408 3.62057 3.66696 3.71326 3.75946 3.80556
3.85156 3.89746 3.94327 3.98897 4.03458 4.08009 4.1255 4.17081 4.21603 4.26114
4.30616 4.35107 4.39589 4.44061 4.48523 4.52975 4.57417 4.61849 4.66272 4.70684
4.75087 4.79481 4.83864 4.88238 4.92602 4.96956 5.01302 5.05637 5.09963 5.1428
5.18587 5.22886 5.27175 5.31455 5.35726 5.39988 5.44241 5.48486 5.52721 5.56948
5.61167 5.65377 5.69579 5.73772 5.77958 5.82135 5.86304 5.90465 5.94618 5.98764
6.02902 6.07032 6.11155 6.1527 6.19378 6.23478 6.27572 6.31658 6.35738 6.39811
6.43877 6.47936 6.51989 6.56035 6.60075 6.64109 6.68137 6.72159 6.76175 6.80185
6.8419 6.88189 6.92183 6.96172 7.00157 7.04136 7.0811 7.1208 7.16046 7.20008
7.23965 7.27919 7.31869 7.35816 7.3976 7.437 7.47638 7.51573 7.55505 7.59435
7.63364 7.6729 7.71214 7.75138 7.79059 7.8298 7.869 7.9082 7.94739 7.98658
8.02577 8.06496 8.10416 8.14337 8.18259 8.22182 8.26107 8.30033 8.33962 8.37893
8.41826 8.45763 8.49702 8.53646 8.57592 8.61544 8.65499 8.6946 8.73425 8.77396
8.81373 8.85355 8.89345 8.93341 8.97345 9.01356 9.05375 9.09403 9.1344 9.17486
9.21542 9.25609 9.29686 9.33774 9.37874 9.41987 9.46112 9.5025 9.54402 9.58569
9.62751 9.66948 9.71161 9.75391 9.79638 9.83904 9.88188 9.92492 9.96816 10.0116
10.0553 10.0992 10.1433 10.1877 10.2323 10.2773 10.3224 10.3679 10.4137 10.4598
10.5062 10.5529 10.6 10.6475 10.6953 10.7436 10.7923 10.8414 10.891 10.9411
10.9917 11.0428 11.0945 11.1468 11.1998 11.2534 11.3078 11.3629 11.4189 11.4758
11.5336 11.5925 11.6525 11.7137 11.7763 11.8404 11.9061 11.9737 12.0433 12.1152
12.1898 12.2675 12.3488 12.4344 12.5249 12.6215 12.7222 12.7725 12.7831 12.7699
12.7713 -4.78437 -5.44073 -5.85624 -6.02449 -6.12528 -6.22415 -6.31789 -6.39813 -6.46672
-6.5278 -6.58388 -6.63622 -6.68537 -6.73169 -6.77554 -6.81739 -6.85757 -6.89632 -6.93384
-6.9703 -7.00584 -7.04065 -7.07488 -7.10868 -7.14216 -7.17536 -7.20835 -7.24121 -7.27398
-7.30673 -7.33951 -7.37238 -7.40538 -7.43856 -7.47198 -7.50572 -7.53984 -7.5744 -7.60943
-7.64499 -7.68112 -7.71787 -7.7553 -7.79348 -7.83249 -7.87242 -7.91336 -7.95541 -7.9987
-8.04337 -8.0896 -8.1376 -8.18762 -8.23998 -8.29512 -8.35361 -8.41621 -8.48455 -8.55895
-8.65018 -8.74906 -8.87439
