/*--------------------------------*- C++ -*----------------------------------*\
| =========                 |                                                 |
| \\      /  F ield         | foam-extend: Open Source CFD                    |
|  \\    /   O peration     | Version:     4.1                                |
|   \\  /    A nd           | Web:         http://www.foam-extend.org         |
|    \\/     M anipulation  |                                                 |
\*---------------------------------------------------------------------------*/
FoamFile
{
    version     2.0;
    format      ascii;
    class       volScalarField;
    location    "15";
    object      aU;
}
// * * * * * * * * * * * * * * * * * * * * * * * * * * * * * * * * * * * * * //

dimensions      [0 0 -1 0 0 0 0];

internalField   nonuniform List<scalar> 
67500
(
151.501
150.887
150.486
150.05
149.598
149.118
148.614
148.097
147.555
146.989
146.396
145.776
145.124
144.437
143.71
142.938
142.112
141.224
140.266
139.225
138.088
136.84
135.46
133.931
132.226
130.319
128.184
125.798
123.152
120.269
117.275
114.487
112.832
112.958
113.482
114.048
114.96
116.86
120.062
125.143
132.097
140.343
149.263
158.504
167.949
177.616
187.537
197.719
208.15
218.818
229.712
240.824
252.149
263.691
275.45
287.426
299.618
312.028
324.658
337.511
350.588
363.893
377.428
391.197
405.204
419.454
433.95
448.695
463.693
478.948
494.462
510.239
526.281
542.592
559.174
576.03
593.163
610.574
628.264
646.234
664.481
683.01
701.812
720.886
740.232
759.849
779.736
799.894
820.321
841.018
861.983
883.219
904.725
926.504
948.556
970.884
993.488
1016.37
1039.54
1062.98
1086.72
1110.74
1135.06
1159.68
1184.59
1209.81
1235.34
1261.18
1287.34
1313.82
1340.63
1367.76
1395.23
1423.04
1451.18
1479.66
1508.48
1537.64
1567.14
1596.98
1627.16
1657.66
1688.48
1719.61
1751.04
1782.76
1814.75
1846.99
1879.46
1912.14
1945
1978.01
2011.16
2044.38
2077.66
2110.96
2144.24
2177.45
2210.57
2243.55
2276.35
2308.92
2341.23
2373.23
2404.87
2436.13
2466.94
2497.28
2527.09
2556.34
2584.98
2612.98
2640.29
2666.88
2692.71
2717.75
2741.97
2765.33
2787.81
2809.37
2830
2849.68
2868.37
2886.07
2902.76
2918.43
2933.07
2946.67
2959.22
2970.71
2981.16
2990.56
2998.92
3006.26
3012.6
3017.95
3022.32
3025.74
3028.22
3029.78
3030.45
3030.26
3029.24
3027.41
3024.82
3021.5
3017.48
3012.79
3007.49
3001.6
2995.17
2988.24
2980.85
2973.05
2964.87
2956.35
2947.55
2938.5
2929.25
2919.84
2910.3
2900.68
2891.03
2881.37
2871.75
2862.21
2852.77
2843.47
2834.36
2825.45
2816.78
2808.37
2800.26
2792.46
2785
2777.9
2771.17
2764.85
2758.93
2753.44
2748.39
2743.77
2739.62
2735.92
2732.68
2729.91
2727.6
2725.76
2724.39
2723.48
2723.02
2723.02
2723.46
2724.34
2725.65
2727.39
2729.54
2732.09
2735.04
2738.37
2742.08
2746.15
2750.57
2755.34
2760.44
2765.86
2771.61
2777.65
2784
2790.63
2797.55
2804.74
2812.2
2819.92
2827.89
2836.12
2844.58
2853.29
2862.23
2871.4
2880.8
2890.41
2900.25
2910.31
2920.57
2931.05
2941.74
2952.63
2963.73
2975.03
2986.54
2998.27
3010.2
3022.33
3034.65
3047.16
3059.87
3072.78
3085.87
3099.15
3112.62
3126.28
3140.13
3154.16
3168.38
3182.78
3197.36
3212.12
3227.06
3242.18
3257.48
3272.95
3288.6
3304.43
3320.42
3336.59
3352.92
3369.43
3386.1
3402.94
3419.94
3437.11
3454.44
3471.93
3489.58
3507.38
3525.34
3543.46
3561.73
3580.15
3598.72
3617.45
3636.32
3655.33
3674.49
3693.79
3713.24
3732.83
3752.55
3772.41
3792.41
3812.54
3832.8
3853.2
3873.72
3894.38
3915.16
3936.06
3957.09
3978.24
3999.51
4020.9
4042.4
4064.02
4085.76
4107.61
4129.57
4151.63
4173.81
4196.09
4218.47
4240.96
4263.55
4286.24
4309.02
4331.9
4354.87
4377.93
4401.09
4424.33
4447.66
4471.07
4494.57
4518.14
4541.79
4565.52
4589.32
4613.2
4637.14
4661.15
4685.26
4709.44
4733.69
4758
4782.36
4806.78
4831.25
4855.76
4880.32
4904.93
4929.57
4954.25
4978.96
5003.7
5028.47
5053.26
5078.07
5102.9
5127.74
5152.59
5177.44
5202.29
5227.14
5251.98
5276.8
5301.61
5326.39
5351.14
5375.86
5400.54
5425.18
5449.76
5474.28
5498.74
5523.13
5547.44
5571.67
5595.8
5619.84
5643.76
5667.57
5691.26
5714.81
5738.22
5761.48
5784.57
5807.5
5830.24
5852.78
5875.13
5897.25
5919.15
5940.81
5962.22
5983.36
6004.22
6024.78
6045.04
6064.98
6084.58
6103.82
6122.69
6141.18
6159.27
6176.93
6194.16
6210.93
6227.22
6243.03
6258.32
6273.07
6287.28
6300.92
6313.96
6326.39
6338.19
6349.33
6359.8
6369.58
6378.64
6386.97
6394.54
6401.34
6407.34
6412.54
6416.91
6420.43
6423.1
6424.9
5141.04
151.615
151.625
151.766
151.833
151.874
151.893
151.889
151.878
151.854
151.814
151.759
151.691
151.609
151.515
151.407
151.286
151.152
151.004
150.841
150.663
150.465
150.25
150.013
149.76
149.492
149.216
148.945
148.699
148.507
148.395
148.5
148.987
149.949
151.737
153.447
154.226
153.295
151.125
148.643
146.986
146.826
148.276
151.137
155.173
160.138
165.852
172.15
178.905
186.036
193.502
201.281
209.348
217.684
226.273
235.104
244.166
253.451
262.954
272.673
282.605
292.749
303.102
313.663
324.435
335.418
346.614
358.024
369.649
381.492
393.553
405.835
418.339
431.068
444.021
457.202
470.612
484.252
498.125
512.23
526.567
541.134
555.945
570.996
586.271
601.769
617.49
633.432
649.596
665.981
682.586
699.412
716.459
733.727
751.217
768.93
786.868
805.032
823.422
842.041
860.891
879.972
899.288
918.841
938.633
958.668
978.947
999.475
1020.25
1041.29
1062.58
1084.13
1105.94
1128.02
1150.36
1172.97
1195.85
1219
1242.42
1266.11
1290.07
1314.28
1338.75
1363.48
1388.45
1413.65
1439.07
1464.71
1490.54
1516.55
1542.72
1569.03
1595.46
1622.02
1648.65
1675.31
1701.97
1728.61
1755.2
1781.69
1808.07
1834.29
1860.33
1886.14
1911.7
1936.97
1961.91
1986.49
2010.68
2034.44
2057.74
2080.54
2102.82
2124.54
2145.67
2166.19
2186.06
2205.27
2223.78
2241.57
2258.63
2274.92
2290.45
2305.18
2319.12
2332.23
2344.52
2355.98
2366.6
2376.38
2385.32
2393.41
2400.67
2407.09
2412.69
2417.49
2421.49
2424.71
2427.16
2428.87
2429.84
2430.11
2429.68
2428.6
2426.87
2424.54
2421.62
2418.15
2414.16
2409.68
2404.73
2399.36
2393.6
2387.47
2381.02
2374.27
2367.26
2360.04
2352.62
2345.04
2337.35
2329.56
2321.72
2313.85
2305.99
2298.16
2290.4
2282.74
2275.19
2267.8
2260.57
2253.54
2246.73
2240.16
2233.85
2227.81
2222.07
2216.63
2211.51
2206.73
2202.29
2198.2
2194.47
2191.11
2188.11
2185.49
2183.25
2181.38
2179.89
2178.77
2178.02
2177.64
2177.63
2177.97
2178.67
2179.71
2181.09
2182.81
2184.85
2187.21
2189.88
2192.85
2196.12
2199.66
2203.48
2207.57
2211.92
2216.53
2221.38
2226.47
2231.79
2237.34
2243.11
2249.09
2255.28
2261.68
2268.28
2275.07
2282.05
2289.22
2296.58
2304.12
2311.83
2319.73
2327.79
2336.03
2344.43
2353
2361.74
2370.64
2379.71
2388.94
2398.35
2407.92
2417.64
2427.52
2437.56
2447.75
2458.1
2468.6
2479.25
2490.05
2501
2512.1
2523.35
2534.75
2546.29
2557.98
2569.81
2581.79
2593.91
2606.17
2618.58
2631.12
2643.8
2656.62
2669.58
2682.67
2695.89
2709.25
2722.75
2736.37
2750.13
2764.01
2778.02
2792.16
2806.43
2820.82
2835.33
2849.97
2864.73
2879.61
2894.6
2909.72
2924.95
2940.3
2955.76
2971.33
2987.02
3002.82
3018.73
3034.74
3050.86
3067.09
3083.43
3099.86
3116.4
3133.04
3149.79
3166.62
3183.56
3200.59
3217.72
3234.94
3252.25
3269.66
3287.15
3304.73
3322.4
3340.16
3358
3375.92
3393.93
3412.01
3430.17
3448.42
3466.73
3485.13
3503.59
3522.13
3540.74
3559.41
3578.16
3596.96
3615.84
3634.77
3653.77
3672.82
3691.93
3711.1
3730.33
3749.62
3768.98
3788.39
3807.85
3827.35
3846.9
3866.48
3886.11
3905.77
3925.46
3945.19
3964.94
3984.73
4004.53
4024.36
4044.2
4064.07
4083.94
4103.82
4123.71
4143.61
4163.5
4183.39
4203.27
4223.14
4243
4262.84
4282.65
4302.44
4322.19
4341.91
4361.59
4381.22
4400.8
4420.32
4439.79
4459.18
4478.5
4497.74
4516.89
4535.95
4554.92
4573.77
4592.51
4611.13
4629.62
4647.97
4666.18
4684.23
4702.12
4719.84
4737.37
4754.72
4771.86
4788.78
4805.49
4821.96
4838.18
4854.15
4869.84
4885.25
4900.37
4915.18
4929.66
4943.81
4957.61
4971.05
4984.1
4996.76
5009.02
5020.84
5032.23
5043.15
5053.61
5063.57
5073.03
5081.97
5090.37
5098.21
5105.48
5112.16
5118.24
5123.7
5128.52
5132.7
5136.21
5139.05
5141.21
5142.67
3859.19
151.392
151.353
151.498
151.599
151.679
151.735
151.768
151.793
151.808
151.811
151.805
151.788
151.764
151.732
151.693
151.649
151.6
151.549
151.497
151.448
151.403
151.369
151.347
151.348
151.387
151.479
151.642
151.902
152.311
152.949
153.948
155.426
157.405
160.117
163.093
166.051
168.179
169.569
170.376
170.906
171.306
171.709
172.322
173.515
175.513
178.423
182.239
186.874
192.254
198.286
204.886
211.963
219.452
227.307
235.495
243.997
252.79
261.859
271.192
280.782
290.62
300.699
311.011
321.555
332.331
343.337
354.574
366.038
377.731
389.651
401.802
414.183
426.795
439.639
452.715
466.025
479.571
493.352
507.37
521.624
536.112
550.841
565.858
581.108
596.579
612.273
628.187
644.322
660.677
677.253
694.048
711.063
728.298
745.755
763.435
781.338
799.467
817.821
836.403
855.214
874.256
893.531
913.042
932.791
952.781
973.015
993.496
1014.23
1035.21
1056.45
1077.95
1099.71
1121.73
1144.03
1166.58
1189.41
1212.51
1235.88
1259.51
1283.42
1307.59
1332.01
1356.7
1381.63
1406.8
1432.2
1457.81
1483.63
1509.63
1535.8
1562.12
1588.57
1615.2
1641.95
1668.74
1695.55
1722.35
1749.1
1775.77
1802.33
1828.75
1855
1881.03
1906.81
1932.31
1957.49
1982.32
2006.76
2030.78
2054.34
2077.41
2099.95
2121.93
2143.32
2164.1
2184.23
2203.68
2222.44
2240.47
2257.75
2274.27
2290
2304.94
2319.05
2332.34
2344.8
2356.4
2367.16
2377.06
2386.1
2394.29
2401.62
2408.11
2413.77
2418.6
2422.62
2425.85
2428.3
2429.99
2430.94
2431.17
2430.7
2429.55
2427.76
2425.36
2422.36
2418.81
2414.72
2410.14
2405.1
2399.62
2393.75
2387.52
2380.96
2374.1
2366.99
2359.66
2352.13
2344.45
2336.65
2328.77
2320.83
2312.86
2304.91
2296.99
2289.15
2281.4
2273.78
2266.3
2259.01
2251.91
2245.03
2238.4
2232.03
2225.93
2220.14
2214.65
2209.49
2204.66
2200.18
2196.05
2192.29
2188.89
2185.87
2183.22
2180.95
2179.06
2177.54
2176.4
2175.63
2175.24
2175.21
2175.54
2176.22
2177.25
2178.62
2180.33
2182.37
2184.73
2187.4
2190.37
2193.64
2197.18
2201.01
2205.1
2209.46
2214.07
2218.93
2224.02
2229.35
2234.91
2240.69
2246.68
2252.88
2259.29
2265.9
2272.7
2279.7
2286.88
2294.25
2301.8
2309.53
2317.44
2325.52
2333.77
2342.19
2350.78
2359.53
2368.45
2377.53
2386.78
2396.2
2405.78
2415.53
2425.42
2435.48
2445.69
2456.05
2466.56
2477.23
2488.05
2499.02
2510.13
2521.4
2532.81
2544.37
2556.07
2567.92
2579.91
2592.05
2604.33
2616.74
2629.3
2641.99
2654.83
2667.8
2680.9
2694.14
2707.52
2721.02
2734.66
2748.42
2762.32
2776.34
2790.5
2804.77
2819.17
2833.7
2848.34
2863.11
2878
2893.01
2908.13
2923.37
2938.73
2954.2
2969.78
2985.48
3001.29
3017.2
3033.22
3049.36
3065.59
3081.93
3098.38
3114.92
3131.57
3148.32
3165.17
3182.11
3199.15
3216.28
3233.51
3250.83
3268.24
3285.74
3303.32
3321
3338.76
3356.6
3374.53
3392.54
3410.63
3428.8
3447.05
3465.37
3483.77
3502.24
3520.78
3539.39
3558.07
3576.82
3595.63
3614.51
3633.45
3652.45
3671.51
3690.62
3709.79
3729.02
3748.32
3767.69
3787.1
3806.56
3826.07
3845.62
3865.21
3884.84
3904.5
3924.2
3943.93
3963.69
3983.48
4003.29
4023.12
4042.97
4062.84
4082.72
4102.61
4122.5
4142.4
4162.3
4182.2
4202.09
4221.97
4241.83
4261.67
4281.5
4301.29
4321.06
4340.78
4360.47
4380.11
4399.7
4419.23
4438.71
4458.11
4477.44
4496.69
4515.86
4534.94
4553.91
4572.78
4591.54
4610.17
4628.67
4647.04
4665.27
4683.34
4701.25
4718.98
4736.53
4753.9
4771.06
4788.01
4804.73
4821.22
4837.47
4853.46
4869.18
4884.62
4899.76
4914.59
4929.11
4943.29
4957.11
4970.58
4983.66
4996.35
5008.64
5020.5
5031.91
5042.87
5053.36
5063.36
5072.85
5081.82
5090.25
5098.12
5105.42
5112.13
5118.24
5123.73
5128.59
5132.79
5136.33
5139.19
5141.37
5142.84
3860.45
151.337
151.262
151.404
151.51
151.597
151.664
151.713
151.751
151.78
151.8
151.812
151.816
151.815
151.809
151.8
151.789
151.779
151.772
151.77
151.778
151.8
151.843
151.916
152.029
152.193
152.428
152.758
153.21
153.819
154.622
155.664
157.008
158.706
160.86
163.288
165.895
168.236
170.258
171.956
173.562
175.202
176.943
178.754
180.72
182.871
185.205
187.814
190.808
194.346
198.512
203.338
208.802
214.864
221.489
228.629
236.23
244.235
252.605
261.317
270.353
279.697
289.332
299.242
309.421
319.863
330.566
341.522
352.727
364.176
375.868
387.803
399.979
412.397
425.054
437.951
451.088
464.464
478.08
491.936
506.032
520.365
534.933
549.796
564.968
580.357
595.963
611.786
627.826
644.081
660.553
677.24
694.143
711.263
728.601
746.157
763.933
781.931
800.151
818.595
837.265
856.162
875.289
894.648
914.242
934.074
954.146
974.463
995.028
1015.84
1036.91
1058.24
1079.83
1101.68
1123.8
1146.19
1168.85
1191.78
1214.98
1238.46
1262.21
1286.23
1310.52
1335.07
1359.88
1384.95
1410.25
1435.78
1461.54
1487.5
1513.64
1539.95
1566.4
1593.06
1619.98
1646.97
1674.01
1701.05
1728.07
1755.05
1781.94
1808.71
1835.33
1861.76
1887.97
1913.91
1939.56
1964.88
1989.82
2014.36
2038.45
2062.07
2085.17
2107.72
2129.69
2151.04
2171.75
2191.78
2211.11
2229.71
2247.56
2264.64
2280.92
2296.38
2311.02
2324.81
2337.74
2349.81
2361.01
2371.33
2380.78
2389.34
2397.04
2403.86
2409.83
2414.94
2419.23
2422.69
2425.36
2427.23
2428.35
2428.72
2428.38
2427.34
2425.64
2423.3
2420.36
2416.84
2412.78
2408.21
2403.17
2397.68
2391.79
2385.53
2378.93
2372.03
2364.87
2357.48
2349.89
2342.15
2334.29
2326.33
2318.32
2310.29
2302.27
2294.29
2286.37
2278.56
2270.87
2263.33
2255.97
2248.82
2241.88
2235.19
2228.76
2222.62
2216.77
2211.24
2206.03
2201.16
2196.64
2192.47
2188.67
2185.23
2182.18
2179.49
2177.19
2175.27
2173.73
2172.56
2171.77
2171.35
2171.3
2171.61
2172.27
2173.29
2174.64
2176.33
2178.35
2180.7
2183.37
2186.34
2189.6
2193.15
2196.97
2201.07
2205.42
2210.03
2214.89
2219.99
2225.32
2230.88
2236.66
2242.65
2248.86
2255.27
2261.89
2268.7
2275.7
2282.89
2290.27
2297.83
2305.57
2313.48
2321.57
2329.83
2338.26
2346.86
2355.62
2364.54
2373.63
2382.9
2392.33
2401.92
2411.67
2421.58
2431.65
2441.86
2452.24
2462.76
2473.44
2484.27
2495.24
2506.37
2517.65
2529.07
2540.63
2552.35
2564.2
2576.21
2588.35
2600.63
2613.06
2625.62
2638.32
2651.16
2664.14
2677.25
2690.5
2703.87
2717.38
2731.03
2744.8
2758.7
2772.73
2786.88
2801.16
2815.56
2830.09
2844.74
2859.51
2874.4
2889.41
2904.54
2919.78
2935.14
2950.61
2966.2
2981.89
2997.7
3013.61
3029.64
3045.77
3062
3078.34
3094.79
3111.33
3127.98
3144.73
3161.57
3178.51
3195.55
3212.68
3229.91
3247.22
3264.63
3282.13
3299.71
3317.39
3335.15
3352.99
3370.91
3388.92
3407.01
3425.17
3443.42
3461.74
3480.13
3498.6
3517.14
3535.75
3554.43
3573.17
3591.98
3610.86
3629.79
3648.79
3667.85
3686.96
3706.13
3725.36
3744.65
3764.01
3783.43
3802.89
3822.39
3841.94
3861.53
3881.15
3900.82
3920.52
3940.25
3960
3979.79
3999.6
4019.43
4039.28
4059.15
4079.03
4098.92
4118.82
4138.72
4158.62
4178.52
4198.42
4218.3
4238.17
4258.02
4277.84
4297.64
4317.41
4337.15
4356.84
4376.49
4396.09
4415.63
4435.11
4454.53
4473.87
4493.14
4512.32
4531.4
4550.39
4569.28
4588.05
4606.7
4625.22
4643.61
4661.85
4679.95
4697.87
4715.63
4733.21
4750.6
4767.78
4784.76
4801.51
4818.03
4834.31
4850.33
4866.08
4881.56
4896.73
4911.6
4926.15
4940.37
4954.24
4967.74
4980.87
4993.6
5005.93
5017.83
5029.29
5040.29
5050.82
5060.87
5070.4
5079.42
5087.89
5095.81
5103.15
5109.91
5116.06
5121.58
5126.47
5130.71
5134.28
5137.17
5139.37
5140.86
3860.07
151.319
151.211
151.339
151.443
151.53
151.603
151.663
151.714
151.757
151.792
151.822
151.846
151.867
151.886
151.904
151.924
151.947
151.977
152.016
152.07
152.143
152.242
152.377
152.557
152.797
153.113
153.527
154.066
154.758
155.632
156.707
157.993
159.475
161.152
163.007
164.925
166.74
168.404
169.921
171.37
172.824
174.348
175.926
177.653
179.626
181.875
184.409
187.246
190.433
193.968
197.847
202.119
206.843
212.081
217.855
224.166
230.973
238.256
245.995
254.167
262.742
271.679
280.948
290.536
300.434
310.635
321.128
331.901
342.945
354.256
365.83
377.665
389.757
402.104
414.701
427.547
440.641
453.983
467.571
481.405
495.481
509.798
524.369
539.316
554.556
570.006
585.666
601.536
617.616
633.906
650.405
667.114
684.034
701.167
718.512
736.072
753.849
771.842
790.055
808.487
827.143
846.023
865.13
884.467
904.038
923.846
943.895
964.189
984.731
1005.53
1026.58
1047.89
1069.46
1091.3
1113.41
1135.8
1158.46
1181.4
1204.62
1228.13
1251.91
1275.97
1300.31
1324.93
1349.81
1374.95
1400.35
1425.98
1451.85
1477.93
1504.21
1530.66
1557.29
1584.35
1611.59
1638.9
1666.27
1693.65
1721.02
1748.34
1775.59
1802.72
1829.7
1856.49
1883.05
1909.36
1935.36
1961.02
1986.3
2011.17
2035.57
2059.49
2082.87
2105.68
2127.89
2149.47
2170.37
2190.58
2210.05
2228.77
2246.7
2263.83
2280.13
2295.59
2310.18
2323.9
2336.72
2348.66
2359.69
2369.81
2379.02
2387.33
2394.74
2401.26
2406.9
2411.67
2415.59
2418.68
2420.94
2422.41
2423.11
2423.06
2422.29
2420.82
2418.69
2415.93
2412.58
2408.65
2404.2
2399.25
2393.83
2388
2381.78
2375.21
2368.32
2361.16
2353.77
2346.17
2338.4
2330.51
2322.52
2314.47
2306.39
2298.32
2290.28
2282.31
2274.44
2266.7
2259.1
2251.69
2244.47
2237.48
2230.74
2224.25
2218.06
2212.16
2206.57
2201.31
2196.39
2191.82
2187.61
2183.77
2180.29
2177.19
2174.47
2172.13
2170.17
2168.59
2167.39
2166.57
2166.12
2166.04
2166.32
2166.95
2167.94
2169.27
2170.93
2172.93
2175.25
2177.91
2180.87
2184.12
2187.66
2191.48
2195.56
2199.91
2204.52
2209.37
2214.46
2219.79
2225.34
2231.12
2237.11
2243.32
2249.73
2256.34
2263.15
2270.15
2277.34
2284.72
2292.28
2300.02
2307.93
2316.02
2324.29
2332.72
2341.32
2350.08
2359.01
2368.11
2377.37
2386.81
2396.4
2406.16
2416.07
2426.14
2436.36
2446.73
2457.26
2467.94
2478.77
2489.75
2500.88
2512.15
2523.58
2535.15
2546.86
2558.72
2570.72
2582.86
2595.15
2607.57
2620.14
2632.84
2645.68
2658.65
2671.76
2685
2698.38
2711.89
2725.53
2739.29
2753.19
2767.21
2781.36
2795.64
2810.04
2824.56
2839.21
2853.97
2868.86
2883.86
2898.98
2914.21
2929.57
2945.03
2960.61
2976.3
2992.09
3008
3024.02
3040.14
3056.37
3072.7
3089.14
3105.67
3122.31
3139.05
3155.88
3172.81
3189.84
3206.96
3224.18
3241.49
3258.89
3276.37
3293.95
3311.61
3329.36
3347.19
3365.11
3383.11
3401.18
3419.34
3437.57
3455.88
3474.27
3492.72
3511.25
3529.85
3548.52
3567.26
3586.06
3604.92
3623.85
3642.84
3661.89
3680.99
3700.15
3719.37
3738.66
3758.01
3777.41
3796.86
3816.36
3835.9
3855.48
3875.1
3894.76
3914.45
3934.17
3953.93
3973.71
3993.51
4013.34
4033.19
4053.05
4072.93
4092.82
4112.71
4132.61
4152.51
4172.41
4192.3
4212.19
4232.06
4251.91
4271.74
4291.54
4311.31
4331.05
4350.75
4370.41
4390.01
4409.57
4429.06
4448.48
4467.84
4487.11
4506.3
4525.41
4544.41
4563.31
4582.1
4600.77
4619.31
4637.72
4655.99
4674.1
4692.06
4709.84
4727.45
4744.87
4762.08
4779.09
4795.88
4812.44
4828.75
4844.81
4860.6
4876.11
4891.33
4906.25
4920.84
4935.11
4949.02
4962.58
4975.76
4988.54
5000.92
5012.87
5024.39
5035.45
5046.04
5056.13
5065.73
5074.8
5083.32
5091.3
5098.69
5105.5
5111.7
5117.27
5122.21
5126.49
5130.09
5133.01
5135.23
5136.74
3858.1
151.31
151.184
151.302
151.406
151.497
151.577
151.649
151.712
151.768
151.819
151.865
151.908
151.95
151.992
152.035
152.082
152.136
152.2
152.277
152.371
152.489
152.637
152.824
153.059
153.355
153.726
154.191
154.77
155.485
156.356
157.399
158.62
159.994
161.47
162.993
164.496
165.946
167.302
168.566
169.751
170.865
171.985
173.127
174.323
175.624
177.088
178.731
180.575
182.707
185.22
188.126
191.433
195.181
199.409
204.089
209.225
214.809
220.866
227.413
234.445
241.957
249.896
258.236
266.966
276.073
285.547
295.363
305.494
315.93
326.662
337.686
348.998
360.593
372.462
384.599
397
409.663
422.585
435.765
449.2
462.888
476.824
491.006
505.498
520.441
535.652
551.066
566.682
582.5
598.521
614.744
631.171
647.802
664.639
681.683
698.937
716.4
734.076
751.964
770.067
788.387
806.926
825.686
844.672
863.887
883.335
903.021
922.948
943.12
963.543
984.221
1005.16
1026.36
1047.83
1069.57
1091.59
1113.89
1136.48
1159.36
1182.53
1205.99
1229.75
1253.8
1278.14
1302.77
1327.69
1352.88
1378.35
1404.08
1430.05
1456.26
1482.68
1509.3
1536.35
1563.87
1591.51
1619.24
1647.04
1674.88
1702.72
1730.53
1758.28
1785.93
1813.43
1840.76
1867.88
1894.73
1921.29
1947.5
1973.34
1998.75
2023.7
2048.14
2072.04
2095.36
2118.05
2140.09
2161.43
2182.05
2201.91
2220.98
2239.24
2256.65
2273.21
2288.88
2303.66
2317.52
2330.46
2342.46
2353.53
2363.65
2372.83
2381.07
2388.38
2394.77
2400.25
2404.83
2408.54
2411.39
2413.4
2414.6
2415.01
2414.65
2413.57
2411.79
2409.34
2406.26
2402.58
2398.35
2393.58
2388.33
2382.64
2376.53
2370.05
2363.24
2356.14
2348.78
2341.21
2333.46
2325.56
2317.56
2309.49
2301.39
2293.29
2285.21
2277.2
2269.28
2261.49
2253.84
2246.37
2239.1
2232.05
2225.25
2218.71
2212.45
2206.49
2200.85
2195.53
2190.56
2185.93
2181.67
2177.77
2174.24
2171.09
2168.32
2165.93
2163.93
2162.3
2161.06
2160.19
2159.7
2159.57
2159.81
2160.41
2161.36
2162.65
2164.28
2166.24
2168.52
2171.14
2174.09
2177.32
2180.85
2184.65
2188.72
2193.05
2197.64
2202.48
2207.56
2212.87
2218.42
2224.18
2230.16
2236.36
2242.75
2249.36
2256.16
2263.15
2270.33
2277.7
2285.25
2292.99
2300.9
2308.98
2317.24
2325.66
2334.26
2343.02
2351.94
2361.03
2370.29
2379.72
2389.31
2399.06
2408.97
2419.03
2429.24
2439.61
2450.13
2460.81
2471.63
2482.61
2493.73
2505
2516.41
2527.98
2539.68
2551.53
2563.53
2575.66
2587.94
2600.35
2612.91
2625.6
2638.43
2651.39
2664.49
2677.72
2691.09
2704.58
2718.21
2731.97
2745.85
2759.86
2774
2788.26
2802.65
2817.16
2831.79
2846.54
2861.41
2876.39
2891.5
2906.72
2922.06
2937.5
2953.07
2968.74
2984.52
3000.41
3016.41
3032.52
3048.73
3065.04
3081.46
3097.98
3114.6
3131.32
3148.14
3165.05
3182.06
3199.17
3216.37
3233.66
3251.04
3268.51
3286.06
3303.71
3321.44
3339.26
3357.15
3375.13
3393.19
3411.33
3429.55
3447.84
3466.21
3484.65
3503.16
3521.75
3540.4
3559.12
3577.9
3596.75
3615.66
3634.64
3653.67
3672.76
3691.9
3711.1
3730.38
3749.71
3769.1
3788.54
3808.02
3827.55
3847.12
3866.73
3886.37
3906.05
3925.76
3945.5
3965.27
3985.07
4004.89
4024.73
4044.58
4064.45
4084.33
4104.22
4124.12
4144.01
4163.91
4183.8
4203.68
4223.54
4243.39
4263.22
4283.03
4302.8
4322.55
4342.25
4361.91
4381.52
4401.08
4420.58
4440.01
4459.38
4478.67
4497.87
4516.99
4536.01
4554.93
4573.74
4592.43
4610.99
4629.43
4647.72
4665.86
4683.84
4701.66
4719.29
4736.74
4754
4771.04
4787.87
4804.47
4820.82
4836.93
4852.77
4868.33
4883.6
4898.57
4913.22
4927.54
4941.51
4955.12
4968.36
4981.21
4993.65
5005.67
5017.25
5028.37
5039.03
5049.19
5058.85
5067.98
5076.58
5084.62
5092.08
5098.94
5105.2
5110.83
5115.82
5120.14
5123.79
5126.75
5129
5130.53
3854.53
151.307
151.172
151.284
151.388
151.482
151.568
151.647
151.719
151.787
151.851
151.912
151.972
152.033
152.095
152.161
152.234
152.315
152.409
152.518
152.648
152.804
152.992
153.219
153.496
153.833
154.242
154.737
155.333
156.047
156.89
157.873
158.995
160.245
161.587
162.966
164.319
165.588
166.757
167.828
168.839
169.798
170.731
171.653
172.572
173.491
174.431
175.441
176.542
177.759
179.153
180.776
182.656
184.82
187.362
190.354
193.849
197.836
202.34
207.41
213.009
219.147
225.786
232.901
240.482
248.512
256.985
265.875
275.127
284.736
294.682
304.959
315.557
326.466
337.673
349.168
360.944
372.999
385.329
397.934
410.809
423.95
437.35
451.006
464.915
479.22
494.068
509.136
524.399
539.856
555.508
571.355
587.399
603.641
620.083
636.727
653.575
670.629
687.889
705.357
723.034
740.922
759.024
777.343
795.883
814.648
833.643
852.872
872.34
892.052
912.012
932.226
952.699
973.438
994.447
1015.73
1037.3
1059.16
1081.31
1103.76
1126.52
1149.58
1172.95
1196.64
1220.64
1244.95
1269.58
1294.52
1319.76
1345.29
1371.12
1397.22
1423.58
1450.18
1477.1
1504.84
1532.83
1560.97
1589.23
1617.59
1646.01
1674.46
1702.91
1731.32
1759.65
1787.86
1815.91
1843.76
1871.36
1898.67
1925.65
1952.25
1978.42
2004.13
2029.32
2053.96
2078
2101.4
2124.13
2146.13
2167.38
2187.85
2207.49
2226.29
2244.21
2261.22
2277.32
2292.47
2306.67
2319.91
2332.16
2343.44
2353.73
2363.03
2371.37
2378.73
2385.13
2390.59
2395.12
2398.75
2401.48
2403.36
2404.39
2404.62
2404.07
2402.77
2400.77
2398.09
2394.77
2390.86
2386.38
2381.38
2375.9
2369.99
2363.67
2357
2350.01
2342.74
2335.23
2327.53
2319.67
2311.69
2303.63
2295.52
2287.4
2279.3
2271.26
2263.3
2255.46
2247.76
2240.24
2232.91
2225.8
2218.93
2212.33
2206.01
2199.98
2194.27
2188.89
2183.85
2179.16
2174.83
2170.87
2167.27
2164.06
2161.23
2158.78
2156.71
2155.03
2153.73
2152.8
2152.25
2152.07
2152.26
2152.8
2153.7
2154.95
2156.53
2158.44
2160.67
2163.23
2166.14
2169.35
2172.85
2176.63
2180.67
2184.98
2189.55
2194.36
2199.42
2204.71
2210.23
2215.97
2221.93
2228.11
2234.49
2241.07
2247.85
2254.82
2261.99
2269.34
2276.87
2284.59
2292.48
2300.55
2308.79
2317.2
2325.78
2334.53
2343.44
2352.51
2361.75
2371.17
2380.74
2390.48
2400.37
2410.41
2420.62
2430.97
2441.48
2452.13
2462.94
2473.9
2485
2496.26
2507.66
2519.2
2530.89
2542.72
2554.7
2566.82
2579.07
2591.47
2604
2616.68
2629.49
2642.43
2655.51
2668.72
2682.06
2695.54
2709.14
2722.88
2736.74
2750.73
2764.84
2779.08
2793.44
2807.93
2822.54
2837.26
2852.11
2867.07
2882.15
2897.35
2912.66
2928.08
2943.62
2959.27
2975.02
2990.89
3006.86
3022.94
3039.13
3055.42
3071.81
3088.3
3104.9
3121.59
3138.38
3155.27
3172.26
3189.34
3206.51
3223.77
3241.13
3258.57
3276.1
3293.72
3311.43
3329.22
3347.09
3365.05
3383.08
3401.2
3419.39
3437.66
3456
3474.42
3492.91
3511.47
3530.1
3548.79
3567.55
3586.38
3605.27
3624.22
3643.23
3662.3
3681.42
3700.6
3719.85
3739.17
3758.54
3777.95
3797.42
3816.92
3836.47
3856.06
3875.69
3895.35
3915.05
3934.78
3954.53
3974.31
3994.12
4013.94
4033.79
4053.64
4073.51
4093.39
4113.28
4133.17
4153.05
4172.93
4192.81
4212.67
4232.52
4252.35
4272.15
4291.93
4311.67
4331.37
4351.04
4370.65
4390.22
4409.72
4429.17
4448.54
4467.84
4487.06
4506.19
4525.23
4544.17
4563
4581.71
4600.3
4618.76
4637.07
4655.25
4673.26
4691.11
4708.78
4726.27
4743.56
4760.65
4777.52
4794.17
4810.57
4826.73
4842.62
4858.24
4873.57
4888.59
4903.3
4917.69
4931.73
4945.41
4958.71
4971.63
4984.15
4996.24
5007.89
5019.09
5029.82
5040.06
5049.8
5059.01
5067.68
5075.79
5083.33
5090.26
5096.59
5102.28
5107.33
5111.71
5115.4
5118.4
5120.68
5122.23
3849.41
151.306
151.166
151.275
151.379
151.476
151.567
151.653
151.735
151.814
151.89
151.966
152.042
152.12
152.201
152.289
152.384
152.491
152.611
152.749
152.909
153.096
153.317
153.577
153.886
154.252
154.684
155.195
155.794
156.493
157.298
158.215
159.241
160.365
161.564
162.805
164.046
165.239
166.357
167.385
168.328
169.203
170.028
170.822
171.599
172.368
173.135
173.914
174.716
175.546
176.412
177.326
178.335
179.473
180.77
182.269
184.044
186.141
188.585
191.455
194.81
198.731
203.244
208.351
214.06
220.365
227.242
234.685
242.622
251.031
259.869
269.113
278.749
288.751
299.095
309.761
320.732
332.002
343.565
355.419
367.56
379.979
392.671
405.63
418.853
432.342
446.397
461.006
475.801
490.78
505.947
521.301
536.847
552.585
568.518
584.65
600.983
617.518
634.255
651.196
668.341
685.693
703.256
721.032
739.026
757.242
775.686
794.364
813.279
832.437
851.842
871.502
891.421
911.609
932.071
952.814
973.847
995.177
1016.81
1038.75
1061.02
1083.6
1106.52
1129.77
1153.35
1177.28
1201.56
1226.17
1251.12
1276.42
1302.04
1327.99
1354.25
1380.8
1407.64
1435.34
1463.69
1492.26
1521.01
1549.93
1578.98
1608.13
1637.34
1666.58
1695.82
1725
1754.09
1783.04
1811.82
1840.36
1868.63
1896.57
1924.14
1951.29
1977.96
2004.12
2029.71
2054.69
2079.01
2102.62
2125.5
2147.59
2168.86
2189.27
2208.79
2227.4
2245.06
2261.76
2277.46
2292.17
2305.86
2318.52
2330.16
2340.76
2350.34
2358.89
2366.43
2372.97
2378.53
2383.12
2386.76
2389.48
2391.31
2392.28
2392.41
2391.75
2390.32
2388.17
2385.33
2381.85
2377.76
2373.11
2367.94
2362.29
2356.21
2349.74
2342.92
2335.8
2328.41
2320.8
2313.01
2305.09
2297.06
2288.97
2280.85
2272.74
2264.68
2256.69
2248.81
2241.06
2233.49
2226.1
2218.92
2211.99
2205.32
2198.92
2192.82
2187.04
2181.58
2176.46
2171.69
2167.28
2163.24
2159.57
2156.28
2153.37
2150.85
2148.71
2146.95
2145.58
2144.58
2143.96
2143.71
2143.83
2144.31
2145.14
2146.32
2147.84
2149.69
2151.86
2154.35
2157.18
2160.35
2163.82
2167.56
2171.57
2175.85
2180.38
2185.16
2190.18
2195.44
2200.92
2206.63
2212.56
2218.7
2225.05
2231.6
2238.35
2245.3
2252.43
2259.76
2267.26
2274.95
2282.82
2290.86
2299.07
2307.46
2316.01
2324.73
2333.61
2342.66
2351.88
2361.27
2370.81
2380.52
2390.38
2400.4
2410.58
2420.9
2431.38
2442.01
2452.8
2463.73
2474.8
2486.03
2497.4
2508.92
2520.58
2532.38
2544.33
2556.41
2568.64
2581.01
2593.51
2606.15
2618.93
2631.84
2644.89
2658.07
2671.38
2684.82
2698.4
2712.1
2725.93
2739.88
2753.96
2768.17
2782.5
2796.95
2811.52
2826.21
2841.02
2855.95
2871
2886.16
2901.43
2916.82
2932.32
2947.94
2963.66
2979.49
2995.43
3011.47
3027.62
3043.87
3060.23
3076.69
3093.25
3109.91
3126.67
3143.52
3160.47
3177.51
3194.65
3211.88
3229.2
3246.61
3264.11
3281.7
3299.37
3317.12
3334.97
3352.89
3370.89
3388.97
3407.13
3425.37
3443.68
3462.07
3480.52
3499.05
3517.65
3536.32
3555.05
3573.85
3592.71
3611.63
3630.61
3649.65
3668.74
3687.9
3707.12
3726.41
3745.75
3765.14
3784.58
3804.06
3823.59
3843.15
3862.76
3882.4
3902.07
3921.78
3941.52
3961.28
3981.06
4000.87
4020.7
4040.54
4060.4
4080.26
4100.13
4120.01
4139.89
4159.76
4179.62
4199.48
4219.32
4239.14
4258.94
4278.72
4298.46
4318.16
4337.83
4357.45
4377.02
4396.53
4415.98
4435.37
4454.68
4473.91
4493.06
4512.11
4531.07
4549.92
4568.65
4587.27
4605.75
4624.1
4642.31
4660.35
4678.24
4695.95
4713.48
4730.82
4747.95
4764.87
4781.57
4798.03
4814.24
4830.19
4845.87
4861.26
4876.36
4891.14
4905.59
4919.7
4933.46
4946.85
4959.84
4972.44
4984.61
4996.35
5007.64
5018.46
5028.78
5038.6
5047.9
5056.66
5064.85
5072.47
5079.48
5085.88
5091.65
5096.76
5101.2
5104.95
5107.99
5110.31
5111.89
3842.73
151.305
151.164
151.272
151.376
151.477
151.573
151.665
151.756
151.844
151.931
152.02
152.109
152.203
152.301
152.407
152.522
152.65
152.793
152.955
153.139
153.352
153.598
153.883
154.214
154.598
155.044
155.56
156.153
156.83
157.596
158.452
159.394
160.412
161.489
162.601
163.722
164.823
165.881
166.884
167.822
168.699
169.519
170.29
171.021
171.723
172.404
173.075
173.744
174.418
175.101
175.799
176.519
177.278
178.082
178.938
179.861
180.878
182.037
183.387
184.954
186.802
189.007
191.627
194.698
198.275
202.422
207.219
212.682
218.818
225.59
232.981
240.96
249.477
258.482
267.931
277.776
287.989
298.551
309.452
320.673
332.197
344.01
356.102
368.465
381.102
394.071
407.812
422.005
436.373
450.921
465.65
480.566
495.669
510.966
526.461