/*--------------------------------*- C++ -*----------------------------------*\
| =========                 |                                                 |
| \\      /  F ield         | foam-extend: Open Source CFD                    |
|  \\    /   O peration     | Version:     4.1                                |
|   \\  /    A nd           | Web:         http://www.foam-extend.org         |
|    \\/     M anipulation  |                                                 |
\*---------------------------------------------------------------------------*/
FoamFile
{
    version     2.0;
    format      ascii;
    class       volScalarField;
    location    "15";
    object      epsilon;
}
// * * * * * * * * * * * * * * * * * * * * * * * * * * * * * * * * * * * * * //

dimensions      [0 2 -3 0 0 0 0];

internalField   nonuniform List<scalar> 
67500
(
0.000196822
0.000194014
0.000191766
0.000190279
0.000189834
0.000190695
0.000193165
0.000197547
0.000204272
0.000213915
0.000227227
0.000245216
0.000269261
0.000301294
0.000344057
0.000401509
0.000479496
0.000586722
0.000736435
0.000949213
0.00125767
0.00171477
0.00240859
0.00348947
0.00522185
0.00808548
0.0129814
0.0216669
0.0377034
0.0687404
0.130949
0.264101
0.597873
1.19059
1.74921
2.15057
2.33289
2.336
2.19224
2.01783
1.87407
1.76685
1.68466
1.61741
1.55861
1.50577
1.45851
1.41659
1.37984
1.34788
1.32015
1.29599
1.27492
1.25661
1.24083
1.22735
1.21598
1.20655
1.19892
1.19298
1.18865
1.18583
1.18447
1.1845
1.1859
1.18865
1.1927
1.19806
1.2047
1.21261
1.22181
1.23228
1.24405
1.2571
1.27147
1.28719
1.30427
1.32277
1.34272
1.36417
1.38715
1.41169
1.43782
1.46559
1.49507
1.52632
1.55942
1.59444
1.63144
1.6705
1.71168
1.75509
1.80079
1.84889
1.89946
1.9526
2.0084
2.06695
2.12833
2.19263
2.25994
2.33033
2.40387
2.48064
2.56069
2.64408
2.73085
2.82102
2.91461
3.01162
3.11203
3.21579
3.32285
3.43312
3.54649
3.66281
3.78193
3.90364
4.0277
4.15387
4.28183
4.41125
4.54177
4.67298
4.80444
4.93568
5.0662
5.19546
5.32287
5.44787
5.56986
5.68823
5.80236
5.91161
6.0154
6.11315
6.20433
6.28836
6.36474
6.43298
6.49265
6.5434
6.5849
6.61688
6.63916
6.65157
6.65406
6.64661
6.62927
6.60216
6.56545
6.51937
6.46422
6.40033
6.32809
6.24793
6.16031
6.06572
5.96469
5.85775
5.74544
5.62834
5.50699
5.38196
5.25379
5.12303
4.9902
4.8558
4.72027
4.58404
4.44748
4.31094
4.17492
4.03988
3.90617
3.77407
3.64384
3.51571
3.38988
3.26653
3.14582
3.0279
2.91288
2.80084
2.69186
2.586
2.48329
2.38376
2.28743
2.19428
2.10431
2.0175
1.9338
1.85319
1.77562
1.70103
1.62937
1.56057
1.49458
1.43131
1.37071
1.31269
1.25719
1.20411
1.1534
1.10497
1.05874
1.01464
0.972592
0.932517
0.894343
0.857995
0.823403
0.790494
0.759199
0.729452
0.701185
0.674335
0.648841
0.62464
0.601676
0.579892
0.559232
0.539646
0.521082
0.503491
0.486828
0.471047
0.456105
0.441961
0.428575
0.415911
0.403933
0.392605
0.381896
0.371774
0.362209
0.353174
0.344642
0.336587
0.328985
0.321813
0.315049
0.308673
0.302664
0.297005
0.291678
0.286666
0.281953
0.277524
0.273366
0.269465
0.265808
0.262383
0.25918
0.256187
0.253394
0.250793
0.248373
0.246126
0.244045
0.242122
0.240349
0.23872
0.237229
0.235869
0.234635
0.233521
0.232523
0.231635
0.230848
0.230161
0.229571
0.229074
0.228668
0.228347
0.22811
0.227953
0.227873
0.227867
0.227933
0.228068
0.228269
0.228535
0.228864
0.229252
0.2297
0.230203
0.230762
0.231373
0.232037
0.23275
0.233512
0.234321
0.235177
0.236077
0.237021
0.238008
0.239036
0.240104
0.241213
0.242359
0.243544
0.244765
0.246022
0.247315
0.248642
0.250003
0.251397
0.252824
0.254283
0.255773
0.257293
0.258844
0.260425
0.262034
0.263672
0.265338
0.267032
0.268752
0.2705
0.272274
0.274073
0.275898
0.277748
0.279623
0.281522
0.283444
0.28539
0.28736
0.289352
0.291367
0.293403
0.295461
0.297541
0.299641
0.301763
0.303905
0.306067
0.30825
0.310452
0.312673
0.314913
0.317173
0.31945
0.321746
0.32406
0.326392
0.328741
0.331107
0.33349
0.335889
0.338305
0.340736
0.343183
0.345646
0.348124
0.350616
0.353123
0.355644
0.35817
0.360704
0.363251
0.365811
0.368383
0.370967
0.373562
0.376168
0.378785
0.381411
0.384048
0.386694
0.389349
0.392013
0.394685
0.397364
0.400051
0.402744
0.405444
0.408149
0.41086
0.413575
0.416295
0.419019
0.421745
0.424475
0.427206
0.429939
0.432672
0.435406
0.43814
0.440872
0.443602
0.44633
0.449054
0.451775
0.45449
0.4572
0.459904
0.4626
0.465287
0.467966
0.470634
0.473291
0.475936
0.478568
0.481185
0.483787
0.486372
0.488939
0.491487
0.494015
0.49652
0.499003
0.501461
0.503893
0.506297
0.508672
0.511016
0.513327
0.515605
0.517846
0.52005
0.522213
0.524335
0.526414
0.528446
0.530431
0.532365
0.534247
0.536075
0.537845
0.539555
0.541203
0.542785
0.5443
0.545743
0.547112
0.548404
0.549615
0.550741
0.551779
0.552723
0.553571
0.554316
0.554955
0.555481
0.555889
0.556171
0.556319
0.000196724
0.00019351
0.000190351
0.000187275
0.000184285
0.000181384
0.000178578
0.000175876
0.000173289
0.000170834
0.000168536
0.000166429
0.000164561
0.000163004
0.000161861
0.000161293
0.00016155
0.000163016
0.000166302
0.000172408
0.000183
0.000200959
0.000231351
0.000283459
0.000374891
0.000540099
0.000849222
0.00145124
0.0026776
0.0052982
0.0112255
0.0255275
0.0636059
0.150626
0.286991
0.457575
0.63422
0.798611
0.945145
1.07515
1.18524
1.26791
1.31835
1.33905
1.33731
1.3226
1.30213
1.28033
1.25924
1.23956
1.22144
1.20487
1.18991
1.17664
1.16506
1.15513
1.14675
1.13984
1.13435
1.13024
1.12746
1.12596
1.12571
1.12667
1.12883
1.13219
1.13673
1.14245
1.14933
1.15738
1.16661
1.17703
1.18864
1.20145
1.2155
1.23079
1.24738
1.26529
1.28459
1.30531
1.32749
1.35115
1.3763
1.403
1.43134
1.46136
1.49313
1.52672
1.5622
1.59963
1.63911
1.6807
1.72449
1.77056
1.81901
1.86992
1.92338
1.97948
2.03831
2.09996
2.1645
2.23202
2.30259
2.37628
2.45317
2.5333
2.61673
2.70349
2.7936
2.88708
2.98391
3.08406
3.1875
3.29415
3.40392
3.5167
3.63232
3.75063
3.87141
3.99442
4.11939
4.24603
4.37397
4.50287
4.63229
4.7618
4.89093
5.01915
5.14594
5.27072
5.39293
5.51195
5.62717
5.73797
5.84374
5.94391
6.03801
6.12544
6.20563
6.27811
6.34241
6.39816
6.445
6.48264
6.51085
6.52943
6.53829
6.53735
6.52664
6.50622
6.47623
6.43686
6.38836
6.33103
6.26522
6.19133
6.10978
6.02105
5.92563
5.82404
5.71681
5.60449
5.48762
5.36676
5.24246
5.11525
4.98565
4.85418
4.72131
4.58746
4.45304
4.31847
4.18419
4.05064
3.91819
3.78711
3.6577
3.5302
3.40484
3.28181
3.1613
3.04346
2.9284
2.81624
2.70707
2.60094
2.49791
2.39801
2.30127
2.20768
2.11725
2.02996
1.94577
1.86467
1.7866
1.71152
1.63937
1.57009
1.50363
1.43991
1.37886
1.32042
1.2645
1.21104
1.15995
1.11116
1.06459
1.02017
0.977811
0.937447
0.898999
0.862394
0.827558
0.794421
0.762912
0.732964
0.704509
0.677483
0.651823
0.627468
0.604359
0.58244
0.561655
0.541951
0.523277
0.505584
0.488825
0.472954
0.457928
0.443706
0.430248
0.417516
0.405474
0.394087
0.383322
0.373148
0.363534
0.354454
0.345878
0.337783
0.330143
0.322935
0.316138
0.30973
0.303692
0.298005
0.292651
0.287613
0.282877
0.278426
0.274246
0.270324
0.266648
0.263205
0.259984
0.256974
0.254165
0.251548
0.249113
0.246852
0.244757
0.242821
0.241035
0.239394
0.23789
0.236519
0.235273
0.234148
0.233139
0.23224
0.231444
0.230746
0.230146
0.22964
0.229224
0.228894
0.228648
0.228482
0.228392
0.228378
0.228435
0.228561
0.228754
0.229011
0.229331
0.229712
0.230151
0.230646
0.231196
0.2318
0.232455
0.23316
0.233914
0.234715
0.235563
0.236455
0.237391
0.238369
0.239389
0.24045
0.24155
0.242689
0.243865
0.245079
0.246328
0.247613
0.248932
0.250285
0.251671
0.25309
0.254541
0.256023
0.257535
0.259078
0.26065
0.262252
0.263882
0.26554
0.267225
0.268938
0.270677
0.272443
0.274235
0.276052
0.277894
0.27976
0.281651
0.283566
0.285504
0.287465
0.28945
0.291456
0.293485
0.295535
0.297607
0.2997
0.301814
0.303948
0.306102
0.308277
0.310471
0.312685
0.314918
0.317169
0.319439
0.321727
0.324034
0.326358
0.328699
0.331058
0.333433
0.335825
0.338233
0.340657
0.343097
0.345552
0.348022
0.350507
0.353006
0.35552
0.358039
0.360566
0.363106
0.365659
0.368224
0.3708
0.373388
0.375987
0.378597
0.381217
0.383847
0.386487
0.389135
0.391792
0.394457
0.39713
0.39981
0.402497
0.40519
0.407889
0.410594
0.413303
0.416017
0.418734
0.421455
0.424178
0.426904
0.429631
0.432359
0.435087
0.437815
0.440542
0.443267
0.445989
0.448709
0.451424
0.454135
0.45684
0.459539
0.46223
0.464913
0.467588
0.470252
0.472905
0.475546
0.478174
0.480787
0.483386
0.485967
0.488531
0.491076
0.493601
0.496104
0.498584
0.501039
0.503468
0.50587
0.508243
0.510586
0.512896
0.515171
0.517411
0.519614
0.521776
0.523897
0.525975
0.528007
0.529991
0.531925
0.533807
0.535634
0.537404
0.539114
0.540762
0.542345
0.543859
0.545303
0.546672
0.547964
0.549175
0.550301
0.551338
0.552282
0.553128
0.553872
0.554509
0.555033
0.555437
0.555715
0.555859
0.00019668
0.000193437
0.000190274
0.000187185
0.000184169
0.000181224
0.000178348
0.000175539
0.000172795
0.000170115
0.000167498
0.000164943
0.00016245
0.000160022
0.000157661
0.000155372
0.000153166
0.000151059
0.000149079
0.000147277
0.000145739
0.000144624
0.000144221
0.000145088
0.000148409
0.000156653
0.000175255
0.000216758
0.000311473
0.000535886
0.00109435
0.00255937
0.00667391
0.0174873
0.038987
0.0731819
0.117811
0.169777
0.227942
0.294576
0.37169
0.456611
0.547281
0.640577
0.731319
0.813177
0.881085
0.932535
0.968242
0.991069
1.00475
1.01246
1.01654
1.01857
1.01942
1.01964
1.01957
1.0195
1.01969
1.02032
1.02151
1.02334
1.02584
1.02909
1.03313
1.03802
1.04378
1.05043
1.05799
1.0665
1.07597
1.08644
1.09794
1.11047
1.12408
1.1388
1.15465
1.17169
1.18996
1.2095
1.23035
1.25255
1.27612
1.30109
1.32754
1.35552
1.3851
1.41633
1.4493
1.48406
1.52069
1.55928
1.5999
1.64263
1.68756
1.73477
1.78436
1.83641
1.891
1.94823
2.00818
2.07092
2.13655
2.20513
2.27673
2.35143
2.42927
2.51031
2.59458
2.6821
2.7729
2.86695
2.96424
3.06473
3.16835
3.27501
3.38461
3.497
3.61201
3.72946
3.84912
3.97072
4.09397
4.21855
4.34409
4.4702
4.59645
4.72237
4.84748
4.97125
5.09314
5.21257
5.32895
5.44166
5.55013
5.65378
5.75207
5.84445
5.93036
6.0093
6.08079
6.14439
6.19972
6.24642
6.28421
6.31284
6.33214
6.34199
6.34231
6.33312
6.31447
6.28649
6.24935
6.20329
6.1486
6.0856
6.01469
5.93626
5.85079
5.75873
5.66059
5.55689
5.44816
5.33493
5.21774
5.09712
4.97359
4.84767
4.71983
4.59054
4.46024
4.32936
4.19836
4.06765
3.93761
3.80858
3.68085
3.5547
3.43039
3.30815
3.18818
3.07066
2.95572
2.84351
2.73412
2.62765
2.52417
2.42372
2.32634
2.23205
2.14086
2.05278
1.96777
1.88582
1.8069
1.73096
1.65796
1.58784
1.52055
1.45602
1.39418
1.33497
1.27831
1.22414
1.17236
1.12292
1.07572
1.0307
0.987781
0.946879
0.907923
0.870837
0.835547
0.801982
0.770071
0.739743
0.710932
0.683572
0.657599
0.632951
0.609568
0.587391
0.566365
0.546435
0.527551
0.509661
0.492717
0.476674
0.461488
0.447115
0.433516
0.420652
0.408486
0.396984
0.38611
0.375835
0.366126
0.356956
0.348297
0.340123
0.332409
0.325132
0.318269
0.311799
0.305702
0.29996
0.294554
0.289468
0.284684
0.280189
0.275967
0.272005
0.268291
0.264811
0.261555
0.258512
0.255671
0.253024
0.25056
0.24827
0.246148
0.244185
0.242375
0.240709
0.239182
0.237787
0.236519
0.235372
0.234342
0.233422
0.232606
0.231889
0.231269
0.230744
0.230309
0.229961
0.229697
0.229513
0.229406
0.229374
0.229414
0.229524
0.2297
0.229941
0.230244
0.230608
0.231031
0.23151
0.232045
0.232632
0.233271
0.233961
0.234699
0.235485
0.236317
0.237193
0.238114
0.239077
0.240082
0.241127
0.242211
0.243335
0.244496
0.245694
0.246928
0.248197
0.249501
0.250839
0.25221
0.253613
0.255048
0.256515
0.258012
0.25954
0.261097
0.262683
0.264297
0.26594
0.26761
0.269308
0.271032
0.272782
0.274558
0.27636
0.278186
0.280038
0.281913
0.283813
0.285736
0.287682
0.28965
0.291642
0.293655
0.29569
0.297747
0.299825
0.301923
0.304043
0.306182
0.308342
0.310521
0.31272
0.314938
0.317174
0.319429
0.321703
0.323994
0.326304
0.32863
0.330974
0.333335
0.335712
0.338105
0.340515
0.34294
0.345381
0.347837
0.350308
0.352793
0.355292
0.357798
0.360311
0.362837
0.365376
0.367927
0.37049
0.373064
0.37565
0.378246
0.380853
0.38347
0.386096
0.388731
0.391375
0.394028
0.396688
0.399355
0.40203
0.404711
0.407397
0.41009
0.412787
0.415489
0.418195
0.420904
0.423616
0.42633
0.429046
0.431763
0.43448
0.437197
0.439914
0.442629
0.445341
0.44805
0.450756
0.453457
0.456153
0.458843
0.461525
0.4642
0.466866
0.469522
0.472167
0.4748
0.477421
0.480027
0.482618
0.485194
0.487751
0.49029
0.492809
0.495306
0.497781
0.500231
0.502656
0.505054
0.507423
0.509761
0.512068
0.51434
0.516578
0.518777
0.520938
0.523057
0.525133
0.527163
0.529146
0.531079
0.53296
0.534787
0.536556
0.538266
0.539914
0.541496
0.543011
0.544455
0.545824
0.547116
0.548326
0.549451
0.550488
0.551431
0.552276
0.553018
0.553652
0.554173
0.554573
0.554848
0.55499
0.000196677
0.000193431
0.000190262
0.00018717
0.000184151
0.000181204
0.000178326
0.000175515
0.000172768
0.000170085
0.000167462
0.000164899
0.000162393
0.000159944
0.000157549
0.000155209
0.000152922
0.000150689
0.00014851
0.000146387
0.000144327
0.000142337
0.000140438
0.000138666
0.000137101
0.000135916
0.000135523
0.000136934
0.000142794
0.000160354
0.000210473
0.000355391
0.000788385
0.00202442
0.00487895
0.0103043
0.0187311
0.0302266
0.0447763
0.0628272
0.0851589
0.11242
0.145251
0.184973
0.233126
0.288359
0.349877
0.415774
0.483503
0.549717
0.611054
0.664919
0.710025
0.746522
0.775525
0.798601
0.817187
0.832501
0.845485
0.856815
0.866967
0.876277
0.885036
0.893506
0.90191
0.910421
0.919166
0.928243
0.937742
0.947749
0.958342
0.969587
0.981543
0.994258
1.00778
1.02216
1.03745
1.0537
1.07096
1.08928
1.10872
1.1293
1.15109
1.17407
1.19833
1.22391
1.25088
1.2793
1.30925
1.34079
1.37399
1.40892
1.44567
1.48431
1.52493
1.56761
1.61243
1.65949
1.70887
1.76064
1.81491
1.87174
1.93122
1.99344
2.05846
2.12637
2.19722
2.27108
2.34801
2.42803
2.51119
2.59749
2.68695
2.77955
2.87526
2.97404
3.0758
3.18045
3.28789
3.39795
3.51047
3.62524
3.74203
3.86057
3.98056
4.10168
4.22355
4.34576
4.4679
4.58949
4.71004
4.82902
4.94588
5.06002
5.17087
5.27788
5.3805
5.47819
5.57041
5.65662
5.73632
5.80905
5.87436
5.93186
5.98118
6.02203
6.05414
6.07731
6.0914
6.09631
6.09201
6.07855
6.05599
6.0245
5.98427
5.93555
5.87864
5.8139
5.74169
5.66244
5.5766
5.48464
5.38706
5.28435
5.17704
5.06564
4.95067
4.83263
4.71202
4.58932
4.46498
4.33948
4.21326
4.08676
3.96038
3.83448
3.7094
3.58545
3.46292
3.34207
3.22314
3.10633
2.99183
2.87979
2.77034
2.66361
2.55969
2.45865
2.36056
2.26545
2.17336
2.08429
1.99825
1.91523
1.83521
1.75816
1.68404
1.61281
1.54441
1.47879
1.41588
1.35563
1.29797
1.24281
1.1901
1.13975
1.09169
1.04584
1.00213
0.960474
0.920804
0.883041
0.847112
0.812942
0.78046
0.749595
0.720278
0.692441
0.666021
0.640952
0.617175
0.594628
0.573256
0.553002
0.533813
0.515638
0.498428
0.482135
0.466715
0.452123
0.438319
0.425263
0.412918
0.401246
0.390215
0.379791
0.369943
0.360643
0.351861
0.343571
0.335748
0.328369
0.321409
0.314849
0.308666
0.302843
0.29736
0.292201
0.287349
0.282788
0.278504
0.274483
0.270712
0.267179
0.263872
0.26078
0.257892
0.255199
0.252692
0.250361
0.248199
0.246198
0.244349
0.242647
0.241085
0.239657
0.238356
0.237177
0.236115
0.235166
0.234319
0.233573
0.232925
0.232372
0.23191
0.231535
0.231244
0.231034
0.230902
0.230845
0.23086
0.230944
0.231096
0.231313
0.231592
0.231933
0.232332
0.232787
0.233298
0.233863
0.234479
0.235145
0.235861
0.236624
0.237433
0.238287
0.239185
0.240126
0.241108
0.24213
0.243193
0.244294
0.245432
0.246608
0.24782
0.249067
0.250348
0.251664
0.253013
0.254394
0.255807
0.257251
0.258726
0.260231
0.261766
0.26333
0.264922
0.266543
0.268191
0.269866
0.271568
0.273296
0.27505
0.276829
0.278633
0.280462
0.282316
0.284193
0.286094
0.288018
0.289964
0.291934
0.293925
0.295938
0.297973
0.300029
0.302105
0.304203
0.30632
0.308458
0.310616
0.312793
0.314989
0.317204
0.319437
0.321689
0.323959
0.326247
0.328552
0.330875
0.333214
0.33557
0.337943
0.340331
0.342735
0.345155
0.34759
0.35004
0.352505
0.354984
0.357469
0.359962
0.362468
0.364987
0.367518
0.370061
0.372616
0.375182
0.377758
0.380346
0.382943
0.38555
0.388167
0.390792
0.393425
0.396067
0.398716
0.401372
0.404035
0.406704
0.409378
0.412058
0.414743
0.417431
0.420124
0.422819
0.425517
0.428216
0.430917
0.433619
0.43632
0.439021
0.441721
0.444419
0.447114
0.449805
0.452492
0.455174
0.457851
0.46052
0.463182
0.465835
0.468479
0.471113
0.473735
0.476344
0.47894
0.481521
0.484086
0.486634
0.489164
0.491674
0.494163
0.49663
0.499073
0.501491
0.503882
0.506245
0.508577
0.510879
0.513146
0.515379
0.517575
0.519731
0.521847
0.52392
0.525948
0.527929
0.52986
0.53174
0.533565
0.535333
0.537043
0.53869
0.540272
0.541786
0.543229
0.544598
0.54589
0.5471
0.548224
0.54926
0.550202
0.551045
0.551786
0.552418
0.552936
0.553335
0.553608
0.553749
0.000196677
0.00019343
0.00019026
0.000187167
0.000184147
0.000181199
0.000178319
0.000175506
0.000172757
0.000170071
0.000167446
0.00016488
0.000162371
0.000159919
0.000157521
0.000155176
0.000152884
0.000150643
0.000148454
0.000146316
0.000144229
0.000142196
0.000140217
0.000138298
0.000136447
0.000134679
0.000133031
0.000131585
0.000130567
0.000130619
0.00013372
0.000146192
0.000188844
0.000323106
0.000673579
0.00142347
0.00275135
0.00481204
0.00773267
0.0116823
0.016883
0.0236031
0.0321526
0.0429997
0.0567817
0.0740499
0.0953777
0.121379
0.152996
0.190294
0.232749
0.279613
0.329574
0.380919
0.431592
0.479687
0.523697
0.562811
0.596967
0.626613
0.65245
0.675147
0.69533
0.713552
0.730269
0.745853
0.760583
0.77469
0.788385
0.801856
0.815269
0.828764
0.84246
0.856456
0.870843
0.885704
0.901118
0.917163
0.933911
0.951428
0.969778
0.989018
1.00921
1.03038
1.05256
1.0758
1.10019
1.12577
1.15263
1.18083
1.21044
1.24154
1.27419
1.30848
1.34449
1.3823
1.422
1.46366
1.50738
1.55323
1.6013
1.65167
1.70443
1.75966
1.81743
1.87784
1.94095
2.00685
2.07558
2.14722
2.22181
2.2994
2.38
2.46364
2.55033
2.64005
2.73276
2.82843
2.92698
3.02832
3.13233
3.23888
3.34778
3.45884
3.57183
3.68649
3.80251
3.91958
4.03733
4.15535
4.27323
4.3905
4.50667
4.62119
4.73347
4.84299
4.94924
5.05168
5.14978
5.24301
5.33085
5.41279
5.48837
5.55713
5.61866
5.67258
5.71855
5.75629
5.78555
5.80615
5.81796
5.82092
5.81499
5.80022
5.77672
5.74463
5.70416
5.65557
5.59914
5.53524
5.46422
5.38652
5.30256
5.2128
5.11774
5.01785
4.91364
4.8056
4.69423
4.58
4.46341
4.34492
4.225
4.10412
3.98268
3.86109
3.73972
3.61892
3.49901
3.38029
3.26303
3.14749
3.03387
2.92237
2.81317
2.70641
2.60222
2.50071
2.40196
2.30604
2.21301
2.12291
2.03574
1.95153
1.87027
1.79194
1.71653
1.64399
1.57429
1.50738
1.4432
1.3817
1.32282
1.26648
1.21262
1.16116
1.11203
1.06516
1.02047
0.977888
0.93733
0.898723
0.861992
0.827063
0.793863
0.76232
0.732363
0.703924
0.676935
0.651333
0.627053
0.604035
0.58222
0.56155
0.541971
0.523431
0.505878
0.489264
0.473542
0.458668
0.4446
0.431295
0.418717
0.406827
0.39559
0.384974
0.374945
0.365474
0.356532
0.348092
0.340128
0.332615
0.32553
0.31885
0.312556
0.306626
0.301043
0.295789
0.290846
0.2862
0.281835
0.277736
0.273892
0.270288
0.266914
0.263757
0.260808
0.258056
0.255492
0.253107
0.250892
0.24884
0.246943
0.245194
0.243586
0.242113
0.240769
0.239548
0.238445
0.237456
0.236571
0.235786
0.235101
0.234512
0.234014
0.233604
0.233279
0.233035
0.232869
0.232778
0.232761
0.232813
0.232933
0.233118
0.233366
0.233676
0.234044
0.234469
0.23495
0.235484
0.23607
0.236707
0.237393
0.238126
0.238906
0.23973
0.240599
0.24151
0.242463
0.243457
0.24449
0.245562
0.246672
0.247819
0.249002
0.25022
0.251473
0.25276
0.254079
0.255432
0.256816
0.258232
0.259678
0.261154
0.26266
0.264195
0.265759
0.267351
0.26897
0.270616
0.27229
0.273989
0.275714
0.277465
0.279241
0.281041
0.282866
0.284714
0.286586
0.288482
0.2904
0.29234
0.294303
0.296288
0.298294
0.300322
0.30237
0.304439
0.306529
0.308638
0.310768
0.312917
0.315085
0.317272
0.319477
0.321701
0.323944
0.326204
0.328481
0.330776
0.333088
0.335417
0.337762
0.340123
0.3425
0.344893
0.347301
0.349724
0.352162
0.354615
0.357074
0.35954
0.36202
0.364513
0.367018
0.369535
0.372065
0.374605
0.377157
0.379719
0.382291
0.384874
0.387465
0.390066
0.392675
0.395293
0.397918
0.40055
0.40319
0.405836
0.408487
0.411144
0.413806
0.416473
0.419143
0.421816
0.424492
0.427171
0.429851
0.432532
0.435213
0.437894
0.440574
0.443253
0.445929
0.448601
0.45127
0.453935
0.456593
0.459246
0.461891
0.464528
0.467156
0.469774
0.472381
0.474976
0.477558
0.480125
0.482677
0.485213
0.48773
0.490229
0.492707
0.495163
0.497596
0.500005
0.502387
0.504741
0.507066
0.50936
0.511621
0.513847
0.516037
0.518189
0.5203
0.522369
0.524393
0.52637
0.528299
0.530176
0.531999
0.533765
0.535473
0.537119
0.5387
0.540214
0.541656
0.543025
0.544315
0.545525
0.546649
0.547684
0.548625
0.549467
0.550207
0.550838
0.551355
0.551753
0.552026
0.552166
0.000196676
0.000193429
0.00019026
0.000187166
0.000184146
0.000181197
0.000178317
0.000175504
0.000172756
0.00017007
0.000167445
0.00016488
0.000162373
0.000159921
0.000157524
0.000155181
0.00015289
0.000150651
0.000148463
0.000146325
0.000144238
0.000142202
0.000140218
0.000138288
0.000136414
0.000134601
0.000132855
0.000131187
0.00012962
0.000128213
0.000127145
0.000127006
0.000129858
0.000142365
0.000180979
0.000275912
0.000467492
0.000798869
0.00131304
0.00205848
0.00309618
0.00450804
0.00639158
0.00887601
0.0121375
0.0163852
0.021861
0.0288679
0.0378179
0.0491544
0.0633029
0.0807151
0.101866
0.127355
0.156881
0.190239
0.226851
0.265814
0.305995
0.346115
0.385025
0.421781
0.45579
0.486883
0.515203
0.541096
0.564906
0.586948
0.607533
0.626937
0.645416
0.663192
0.680458
0.697381
0.714105
0.730763
0.74748
0.764373
0.781547
0.799098
0.817113
0.835671
0.854849
0.874734
0.895335
0.916687
0.93887
0.961963
0.986035
1.01116
1.0374
1.06485
1.09357
1.12363
1.15513
1.18815
1.22276
1.25906
1.29711
1.33701
1.37883
1.42266
1.46858
1.51668
1.56703
1.61974
1.67488
1.73253
1.79277
1.85567
1.9213
1.98971
2.06097
2.13511
2.21217
2.29217
2.37513
2.46103
2.54986
2.64157
2.7361
2.83338
2.93329
3.03571
3.14047
3.24739
3.35624
3.46677
3.57871
3.69172
3.80545
3.91953
4.03353
4.147
4.25932
4.37003
4.47863
4.58462
4.68748
4.78671
4.88178
4.97217
5.05737
5.13691
5.21032
5.27715
5.337
5.38949
5.43431
5.47116
5.49981
5.52009
5.53186
5.53505
5.52965
5.51569
5.49328
5.46257
5.42375
5.37707
5.32283
5.26136
5.19303
5.11825
5.03744
4.95105
4.85954
4.7634
4.6631
4.55913
4.45197
4.3421
4.23001
4.11615
4.00099
3.88494
3.76842
3.6518
3.53545
3.4197
3.30488
3.19127
3.07913
2.96868
2.86016
2.75373
2.64958
2.54783
2.44861
2.35203
2.25816
2.16706
2.07879
1.99337
1.91082
1.83115
1.75436
1.68041
1.60929
1.54096
1.47537
1.41247
1.35222
1.29454
1.23937
1.18665
1.13631
1.08826
1.04244
0.998774
0.957182
0.91759
0.879922
0.844102
0.810058
0.777715
0.747002
0.717848
0.690186
0.663949
0.639071
0.61549
0.593145
0.571978
0.551932
0.532952
0.514987
0.497986
0.481901
0.466686
0.452297
0.438692
0.425831
0.413676
0.40219
0.39134
0.381091
0.371413
0.362276
0.353652
0.345515
0.337839
0.3306
0.323775
0.317343
0.311284
0.305578
0.300207
0.295154
0.290403
0.285938
0.281745
0.277809
0.274119
0.270662
0.267427
0.264402
0.261577
0.258943
0.256491
0.254212
0.252097
0.25014
0.248333
0.246668
0.245141
0.243744
0.242472
0.241319
0.24028
0.239348
0.238517
0.237786
0.237152
0.23661
0.236157
0.235789
0.235504
0.235297
0.235166
0.235108
0.235121
0.235202
0.235349
0.235559
0.23583
0.236161
0.236549
0.236992
0.23749
0.238039
0.23864
0.239289
0.239987
0.24073
0.241519
0.242352
0.243228
0.244146
0.245104
0.246102
0.247139
0.248213
0.249325
0.250473
0.251656
0.252874
0.254125
0.25541
0.256728
0.258077
0.259458
0.260869
0.262311
0.263782
0.265282
0.266811
0.268367
0.269952
0.271564
0.273202
0.274866
0.276557
0.278273
0.280014
0.281779
0.283569
0.285383
0.287221
0.289081
0.290965
0.292871
0.294799
0.29675
0.298721
0.300715
0.302729
0.304763
0.306819
0.308894
0.310989
0.313104
0.315238
0.317391
0.319563
0.321753
0.323962
0.326188
0.328432
0.330694
0.332972
0.335267
0.337579
0.339908
0.342252
0.344612
0.346987
0.349378
0.351784
0.354204
0.356631
0.359066
0.361514
0.363975
0.366449
0.368935
0.371433
0.373943
0.376463
0.378995
0.381537
0.384089
0.386651
0.389222
0.391802
0.39439
0.396986
0.39959
0.4022
0.404818
0.407441
0.410071
0.412705
0.415344
0.417988
0.420635
0.423285
0.425937
0.428592
0.431248
0.433904
0.436561
0.439217
0.441871
0.444524
0.447174
0.449821
0.452463
0.4551
0.457732
0.460356
0.462973
0.465582
0.468181
0.470769
0.473346
0.475911
0.478461
0.480997
0.483517
0.48602
0.488504
0.490968
0.493411
0.495831
0.498228
0.500599
0.502942
0.505257
0.507541
0.509794
0.512012
0.514194
0.516339
0.518444
0.520507
0.522526
0.524499
0.526423
0.528296
0.530116
0.53188
0.533586
0.53523
0.536809
0.538321
0.539763
0.54113
0.54242
0.543629
0.544753
0.545787
0.546728
0.54757
0.548309
0.54894
0.549458
0.549856
0.55013
0.55027
0.000196676
0.000193429
0.00019026
0.000187166
0.000184146
0.000181197
0.000178317
0.000175503
0.000172755
0.000170069
0.000167444
0.000164878
0.00016237
0.000159918
0.000157521
0.000155177
0.000152886
0.000150646
0.000148457
0.000146318
0.000144229
0.000142191
0.000140204
0.000138269
0.000136388
0.000134563
0.000132797
0.000131095
0.000129462
0.000127905
0.000126444
0.000125131
0.000124151
0.000124156
0.000127007
0.000136821
0.000160618
0.00020805
0.000290588
0.000421237
0.000614624
0.000888867
0.00126669
0.00177805
0.00246286
0.00337412
0.00458054
0.00616817
0.00824904
0.0109696
0.0145028
0.0190469
0.0248531
0.032253
0.0415692
0.0531287
0.0672867
0.0844104
0.104798
0.128289
0.154719
0.183693
0.214604
0.246695
0.279132
0.311171
0.342208
0.371809
0.399767
0.426068
0.45084
0.474273
0.496554
0.517858
0.538349
0.558181
0.577507
0.596476
0.61523
0.633894
0.652579
0.671385
0.690409
0.709753
0.729542
0.749731
0.770396
0.791626
0.813504
0.836107
0.859511
0.883796
0.909038
0.935319
0.962724
0.991337
1.02124
1.05252
1.08525
1.1195
1.15537
1.19293
1.23227
1.27347
1.31662
1.36181
1.40914
1.45868
1.51052
1.56475
1.62144
1.68067
1.74251
1.80703
1.87429
1.94435
2.01724
2.09301
2.17167
2.25323
2.33769
2.42501
2.51515
2.60805
2.70361
2.80173
2.90225
3.00501
3.10979
3.21638
3.32448
3.43381
3.54402
3.65477
3.76552
3.87576
3.98506
4.09297
4.19901
4.30268
4.40348
4.5009
4.59441
4.68352
4.76772
4.84652
4.91945
4.98608
5.04598
5.0988
5.14418
5.18185
5.21157
5.23315
5.24645
5.2514
5.24798
5.23621
5.21619
5.18806
5.152
5.10828
5.05716
4.99897
4.93408
4.86288
4.78579
4.70324
4.6157
4.52362
4.42749
4.32778
4.22499
4.11959
4.01205
3.90281
3.79232
3.681
3.56924
3.45741
3.34588
3.23499
3.12502
3.01627
2.90897
2.80337
2.69967
2.59805
2.49867
2.40167
2.30715
2.21523
2.12596
2.03942
1.95564
1.87465
1.79647
1.72109
1.6485
1.57869
1.51161
1.44724
1.38551
1.32639
1.26982
1.21572
1.16404
1.1147
1.06764
1.02277
0.980034
0.939343
0.900626
0.863808
0.828814
0.795569
0.764001
0.734039
0.705612
0.678651
0.653091
0.628867
0.605917
0.584179
0.563596
0.544111
0.525671
0.508223
0.491718
0.476109
0.461349
0.447396
0.434207
0.421744
0.409969
0.398845
0.38834
0.37842
0.369056
0.360217
0.351877
0.34401
0.336591
0.329596
0.323003
0.316791
0.310941
0.305433
0.30025
0.295375
0.290793
0.286488
0.282446
0.278654
0.2751
0.271771
0.268657
0.265747
0.263031
0.260499
0.258144
0.255956
0.253928
0.252052
0.250321
0.248729
0.247269
0.245937
0.244725
0.243629
0.24264
0.241754
0.240969
0.240282
0.239689
0.239185
0.238768
0.238433
0.238178
0.237999
0.237895
0.237861
0.237896
0.237997
0.238162
0.238389
0.238676
0.23902
0.23942
0.239874
0.240381
0.240939
0.241546
0.242201
0.242903
0.24365
0.244441
0.245275
0.246151
0.247068
0.248025
0.24902
0.250054
0.251125
0.252231
0.253373
0.25455
0.255761
0.257005
0.258282
0.259591
0.26093
0.262301
0.263702
0.265132
0.266592
0.26808
0.269596
0.27114
0.272711
0.274309
0.275933
0.277583
0.279258
0.280959
0.282684
0.284433
0.286207
0.288004
0.289824
0.291667
0.293533
0.295421
0.297331
0.299263
0.301216
0.30319
0.305185
0.3072
0.309236
0.311291
0.313367
0.315461
0.317575
0.319707
0.321858
0.324027
0.326214
0.328419
0.330641
0.332881
0.335138
0.337411
0.339701
0.342007
0.344328
0.346666
0.349019
0.351386
0.353769
0.356159
0.358556
0.360967
0.363392
0.365829
0.368278
0.37074
0.373214
0.375699
0.378194
0.380701
0.383218
0.385745
0.388281
0.390826
0.39338
0.395942
0.398512
0.40109
0.403674
0.406265
0.408862
0.411464
0.414071
0.416683
0.419299
0.421918
0.424541
0.427165
0.429791
0.432419
0.435047
0.437674
0.440301
0.442927
0.44555
0.44817
0.450786
0.453398
0.456005
0.458605
0.461199
0.463784
0.46636
0.468927
0.471482
0.474026
0.476557
0.479073
0.481574
0.484059
0.486526
0.488973
0.4914
0.493806
0.496187
0.498545
0.500875
0.503178
0.505451
0.507692
0.5099
0.512073
0.514209
0.516306
0.518362
0.520374
0.522341
0.52426
0.526128
0.527944
0.529704
0.531407
0.533048
0.534625
0.536135
0.537575
0.538942
0.540231
0.541439
0.542562
0.543596
0.544537
0.54538
0.54612
0.546752
0.547271
0.54767
0.547945
0.548087
0.000196676
0.000193429
0.00019026
0.000187166
0.000184146
0.000181197
0.000178317
0.000175504
0.000172755
0.00017007
0.000167445
0.00016488
0.000162372
0.000159921
0.000157524
0.000155181
0.000152891
0.000150651
0.000148463
0.000146324
0.000144235
0.000142196
0.000140207
0.000138269
0.000136382
0.000134548
0.000132769
0.000131048
0.000129387
0.000127789
0.000126257
0.000124796
0.000123421
0.000122188
0.000121277
0.00012116
0.000122806
0.000127847
0.000138633
0.00015825
0.000190471
0.000239834
0.000311757
0.000412814
0.000551263
0.000737784
0.000986693
0.00131688
0.00175316
0.00232839
0.00308492
0.00407784
0.00537688
0.00707316
0.00927935
0.0121379
0.0158089
0.0204841
0.0264152
0.0338487
0.0430517
0.0542809
0.0678347
0.0839343
0.102447
0.123295
0.146215
0.170821
0.196627
0.223073
0.249642
0.275909
0.301555
0.32639
0.350337
0.373406
0.395669
0.417232
0.43821
0.458712
0.478836
0.498682
0.518348
0.537937
0.55757
0.577404
0.597337
0.61747
0.637893
0.658693
0.679953
0.701755
0.724183
0.74732
0.771257
0.796081
0.821878
0.848727
0.876704
0.905886
0.936353
0.968187
1.00147
1.03629
1.07273
1.11089
1.15086
1.19273
1.23659
1.28253
1.33064
1.38101
1.43371
1.48884
1.54648
1.60671
1.6696
1.73522
1.80362
1.87485
1.94895
2.02595
2.10585
2.18866
2.27434
2.36284
2.45411
2.54805
2.64452
2.74339
2.84446
2.94752
3.05232
3.15859
3.26602
3.37399
3.48215
3.59009
3.69739
3.80359