/*--------------------------------*- C++ -*----------------------------------*\
| =========                 |                                                 |
| \\      /  F ield         | foam-extend: Open Source CFD                    |
|  \\    /   O peration     | Version:     4.1                                |
|   \\  /    A nd           | Web:         http://www.foam-extend.org         |
|    \\/     M anipulation  |                                                 |
\*---------------------------------------------------------------------------*/
FoamFile
{
    version     2.0;
    format      ascii;
    class       volScalarField;
    location    "15";
    object      k;
}
// * * * * * * * * * * * * * * * * * * * * * * * * * * * * * * * * * * * * * //

dimensions      [0 2 -2 0 0 0 0];

internalField   nonuniform List<scalar> 
67500
(
0.000148769
0.000147716
0.000146948
0.000146579
0.000146766
0.000147657
0.000149418
0.000152207
0.000156238
0.000161783
0.000169174
0.000178832
0.000191293
0.00020726
0.000227664
0.000253752
0.000287228
0.000330418
0.000386556
0.000460201
0.000557869
0.000689032
0.000867707
0.00111499
0.00146342
0.0019643
0.00270078
0.00381182
0.00553701
0.00831469
0.0129205
0.0210286
0.0374633
0.0634388
0.0894449
0.111712
0.127334
0.136419
0.139165
0.139805
0.141018
0.143221
0.145964
0.148828
0.151581
0.154206
0.156784
0.159374
0.162018
0.164738
0.167533
0.170396
0.173324
0.176321
0.179393
0.182543
0.185774
0.189088
0.19249
0.195982
0.199571
0.203258
0.20705
0.21095
0.214965
0.2191
0.223361
0.227753
0.232282
0.236953
0.241773
0.246747
0.251881
0.257181
0.262652
0.268303
0.274141
0.280173
0.286408
0.292853
0.299514
0.306396
0.313504
0.320845
0.32843
0.336265
0.344361
0.352727
0.36137
0.370299
0.379524
0.389053
0.398897
0.409065
0.419566
0.43041
0.441606
0.453163
0.465088
0.477391
0.490078
0.503155
0.51663
0.530507
0.544791
0.559485
0.57459
0.590108
0.606038
0.622377
0.639121
0.656263
0.673796
0.691709
0.709989
0.728621
0.747586
0.766864
0.786431
0.80626
0.826322
0.846584
0.86701
0.887561
0.908194
0.928864
0.949522
0.970116
0.990589
1.01088
1.03094
1.05071
1.07011
1.08908
1.10757
1.12551
1.14284
1.1595
1.17543
1.19057
1.20486
1.21826
1.23071
1.24218
1.25261
1.26198
1.27026
1.27741
1.28341
1.28825
1.29192
1.29441
1.29572
1.29586
1.29482
1.29264
1.28933
1.2849
1.2794
1.27284
1.26527
1.25672
1.24724
1.23686
1.22564
1.21361
1.20083
1.18735
1.17321
1.15845
1.14312
1.12726
1.11093
1.0942
1.07712
1.05973
1.04207
1.0242
1.00616
0.987968
0.969682
0.951335
0.932961
0.914594
0.896266
0.878007
0.859844
0.841805
0.823913
0.806192
0.788663
0.771345
0.754258
0.737417
0.720838
0.704534
0.688518
0.672802
0.657395
0.642305
0.627541
0.613109
0.599015
0.585262
0.571854
0.558793
0.546082
0.533722
0.521711
0.51005
0.498738
0.487772
0.47715
0.466869
0.456925
0.447315
0.438034
0.429077
0.420439
0.412115
0.404098
0.396383
0.388965
0.381835
0.374989
0.368419
0.362119
0.356082
0.350301
0.344769
0.33948
0.334427
0.329603
0.325001
0.320616
0.316439
0.312465
0.308688
0.3051
0.301697
0.298472
0.29542
0.292534
0.289809
0.28724
0.284821
0.282548
0.280415
0.278417
0.276551
0.274811
0.273193
0.271693
0.270307
0.269031
0.267861
0.266794
0.265827
0.264955
0.264175
0.263486
0.262883
0.262364
0.261926
0.261566
0.261282
0.261072
0.260933
0.260863
0.260859
0.260919
0.261041
0.261224
0.261466
0.261765
0.26212
0.262529
0.262991
0.263504
0.264067
0.264678
0.265336
0.26604
0.266789
0.267581
0.268416
0.269292
0.270208
0.271164
0.272158
0.273189
0.274258
0.275362
0.276501
0.277675
0.278882
0.280122
0.281394
0.282698
0.284032
0.285397
0.286791
0.288214
0.289666
0.291146
0.292654
0.294188
0.295749
0.297336
0.298948
0.300586
0.302248
0.303934
0.305645
0.307379
0.309135
0.310915
0.312717
0.314541
0.316387
0.318254
0.320141
0.32205
0.323979
0.325928
0.327896
0.329884
0.331891
0.333917
0.335961
0.338023
0.340104
0.342201
0.344317
0.346449
0.348598
0.350764
0.352945
0.355143
0.357357
0.359587
0.361831
0.364091
0.366365
0.368654
0.370958
0.373275
0.375606
0.377951
0.380309
0.382679
0.385063
0.387459
0.389868
0.392288
0.39472
0.397163
0.399618
0.402083
0.404559
0.407042
0.409533
0.412033
0.414542
0.417061
0.419588
0.422123
0.424666
0.427217
0.429775
0.43234
0.434912
0.437489
0.440073
0.442662
0.445255
0.447853
0.450456
0.453062
0.455671
0.458283
0.460897
0.463513
0.466131
0.468749
0.471367
0.473985
0.476603
0.479219
0.481832
0.484444
0.487052
0.489655
0.492255
0.494849
0.497437
0.500018
0.502592
0.505157
0.507713
0.510259
0.512793
0.515316
0.517827
0.520323
0.522804
0.52527
0.527718
0.530149
0.53256
0.53495
0.537319
0.539665
0.541986
0.544282
0.54655
0.54879
0.551
0.553178
0.555323
0.557433
0.559507
0.561542
0.563537
0.56549
0.567399
0.569263
0.571078
0.572844
0.574558
0.576219
0.577822
0.579368
0.580852
0.582273
0.583628
0.584915
0.586131
0.587274
0.58834
0.589326
0.590231
0.591049
0.59178
0.592418
0.592961
0.593405
0.593745
0.593979
0.594099
0.000148717
0.000147446
0.000146183
0.000144946
0.000143736
0.000142557
0.000141412
0.000140309
0.000139254
0.000138258
0.000137336
0.000136505
0.000135793
0.000135235
0.00013488
0.0001348
0.000135102
0.000135938
0.000137532
0.000140217
0.000144503
0.000151179
0.000161483
0.000177416
0.000202325
0.000241908
0.00030621
0.000413523
0.000598438
0.000928309
0.00154528
0.00276455
0.00537297
0.0106004
0.0187725
0.0295339
0.0417474
0.0544686
0.0672297
0.0798842
0.0920419
0.103051
0.1124
0.120027
0.12622
0.131446
0.136083
0.140369
0.144429
0.148325
0.152099
0.155782
0.159408
0.163007
0.166602
0.170207
0.173834
0.177492
0.181193
0.184947
0.188764
0.192649
0.19661
0.200655
0.204792
0.209029
0.213372
0.217829
0.222406
0.22711
0.231948
0.236926
0.24205
0.247327
0.252763
0.258367
0.264146
0.270107
0.276262
0.282617
0.289179
0.295951
0.302935
0.310144
0.317585
0.325266
0.333197
0.341386
0.349841
0.358573
0.367589
0.376899
0.386513
0.39644
0.406691
0.417274
0.428199
0.439475
0.451111
0.463114
0.475492
0.488253
0.501404
0.514949
0.528894
0.543243
0.557999
0.573164
0.588738
0.604719
0.621105
0.637891
0.65507
0.672633
0.690568
0.708864
0.727503
0.746466
0.765733
0.785279
0.805076
0.825094
0.8453
0.865656
0.886122
0.906656
0.92721
0.947734
0.968176
0.98848
1.00859
1.02844
1.04797
1.06711
1.08581
1.104
1.12164
1.13864
1.15495
1.17051
1.18527
1.19916
1.21215
1.22418
1.23522
1.24522
1.25414
1.26197
1.26866
1.27421
1.2786
1.28182
1.28386
1.28473
1.28443
1.28297
1.28038
1.27666
1.27184
1.26596
1.25904
1.25113
1.24225
1.23246
1.22179
1.2103
1.19802
1.185
1.1713
1.15696
1.14202
1.12653
1.11055
1.09414
1.07734
1.06021
1.04279
1.02512
1.00725
0.989223
0.971073
0.952842
0.934565
0.916278
0.898014
0.879804
0.861677
0.843661
0.825782
0.808063
0.790528
0.773197
0.756088
0.739221
0.72261
0.706271
0.690217
0.674458
0.659007
0.643872
0.629061
0.614582
0.600439
0.586638
0.573182
0.560075
0.547317
0.534911
0.522856
0.511152
0.499798
0.488791
0.47813
0.467812
0.457832
0.448187
0.438873
0.429884
0.421216
0.412863
0.40482
0.397079
0.389636
0.382483
0.375615
0.369024
0.362704
0.356649
0.35085
0.345302
0.339997
0.334929
0.330091
0.325476
0.321077
0.316889
0.312903
0.309115
0.305518
0.302105
0.298871
0.29581
0.292916
0.290183
0.287606
0.28518
0.2829
0.28076
0.278756
0.276884
0.275138
0.273514
0.272009
0.270617
0.269336
0.268161
0.267089
0.266117
0.26524
0.264456
0.263762
0.263154
0.26263
0.262188
0.261823
0.261535
0.26132
0.261177
0.261102
0.261095
0.26115
0.261268
0.261446
0.261684
0.261979
0.26233
0.262734
0.263192
0.2637
0.264259
0.264865
0.265519
0.266218
0.266962
0.26775
0.26858
0.269451
0.270363
0.271314
0.272304
0.273331
0.274394
0.275494
0.276628
0.277797
0.278999
0.280234
0.281501
0.2828
0.284129
0.285489
0.286878
0.288297
0.289744
0.291219
0.292721
0.29425
0.295806
0.297388
0.298995
0.300627
0.302284
0.303966
0.305671
0.3074
0.309151
0.310926
0.312723
0.314541
0.316382
0.318243
0.320126
0.322029
0.323953
0.325896
0.32786
0.329842
0.331844
0.333865
0.335904
0.337961
0.340036
0.342129
0.344239
0.346366
0.34851
0.350671
0.352848
0.355041
0.357249
0.359474
0.361713
0.363968
0.366238
0.368522
0.37082
0.373133
0.375459
0.377799
0.380152
0.382518
0.384896
0.387288
0.389691
0.392107
0.394534
0.396973
0.399423
0.401884
0.404355
0.406834
0.40932
0.411816
0.414321
0.416835
0.419357
0.421888
0.424427
0.426974
0.429528
0.432089
0.434656
0.43723
0.439809
0.442394
0.444984
0.447578
0.450176
0.452778
0.455384
0.457992
0.460603
0.463215
0.465829
0.468444
0.471059
0.473674
0.476288
0.4789
0.481511
0.484119
0.486724
0.489325
0.491922
0.494513
0.497098
0.499677
0.502248
0.50481
0.507364
0.509907
0.51244
0.514961
0.517469
0.519963
0.522443
0.524907
0.527354
0.529782
0.532192
0.534581
0.536949
0.539293
0.541614
0.543909
0.546176
0.548416
0.550625
0.552803
0.554947
0.557057
0.55913
0.561165
0.563161
0.565114
0.567024
0.568887
0.570704
0.57247
0.574185
0.575846
0.57745
0.578997
0.580482
0.581904
0.58326
0.584548
0.585765
0.586908
0.587975
0.588962
0.589867
0.590686
0.591416
0.592054
0.592597
0.593039
0.593378
0.59361
0.593728
0.000148694
0.000147407
0.000146143
0.000144898
0.000143673
0.000142467
0.000141281
0.000140114
0.000138965
0.000137835
0.000136724
0.000135632
0.00013456
0.00013351
0.000132483
0.000131485
0.000130519
0.000129595
0.000128726
0.000127936
0.000127259
0.000126755
0.000126518
0.000126708
0.000127634
0.000129848
0.000134379
0.000143235
0.000160504
0.000194889
0.000266116
0.000420461
0.000772576
0.0015727
0.00310763
0.00560555
0.00906653
0.013419
0.0186748
0.0250413
0.0327108
0.0415546
0.0514199
0.0620267
0.0729084
0.0834961
0.0933125
0.102084
0.109791
0.116583
0.122684
0.128283
0.13352
0.138492
0.143262
0.147874
0.152364
0.156766
0.161109
0.165421
0.169719
0.17402
0.178338
0.182687
0.187081
0.191533
0.196053
0.200651
0.205335
0.210116
0.215002
0.220002
0.225125
0.230377
0.235766
0.241302
0.246992
0.252845
0.258869
0.265074
0.271465
0.27805
0.284831
0.291815
0.299012
0.30643
0.314079
0.321966
0.330101
0.338493
0.347151
0.356085
0.365304
0.374819
0.384638
0.394772
0.405231
0.416023
0.427159
0.438645
0.450492
0.462706
0.475295
0.488265
0.501623
0.515375
0.529524
0.544073
0.559026
0.574381
0.590139
0.606297
0.622851
0.639794
0.657118
0.674813
0.692866
0.711262
0.729983
0.749008
0.768313
0.787873
0.807657
0.827633
0.847765
0.868014
0.888337
0.908687
0.929016
0.949271
0.969398
0.989337
1.00903
1.02841
1.04741
1.06598
1.08406
1.10158
1.11849
1.13472
1.15021
1.16492
1.17878
1.19175
1.20377
1.21482
1.22484
1.2338
1.24168
1.24843
1.25406
1.25853
1.26185
1.26399
1.26497
1.26479
1.26346
1.261
1.25742
1.25274
1.24701
1.24024
1.23247
1.22374
1.2141
1.20358
1.19223
1.1801
1.16724
1.15368
1.13947
1.12468
1.10934
1.09352
1.07727
1.06063
1.04365
1.02638
1.00887
0.991154
0.97328
0.955289
0.937217
0.919103
0.900982
0.882887
0.864849
0.846899
0.829065
0.811372
0.793845
0.776507
0.759378
0.742478
0.725825
0.709434
0.69332
0.677496
0.661975
0.646765
0.631876
0.617316
0.603092
0.589208
0.57567
0.56248
0.54964
0.537154
0.525019
0.513238
0.501808
0.490729
0.479997
0.469609
0.459564
0.449855
0.44048
0.431433
0.422709
0.414303
0.406208
0.39842
0.39093
0.383734
0.376824
0.370194
0.363837
0.357745
0.351913
0.346333
0.340998
0.335902
0.331037
0.326396
0.321973
0.317762
0.313755
0.309946
0.306329
0.302897
0.299646
0.296567
0.293657
0.290909
0.288317
0.285877
0.283583
0.281431
0.279414
0.277529
0.275772
0.274137
0.27262
0.271218
0.269927
0.268742
0.26766
0.266678
0.265791
0.264998
0.264295
0.263678
0.263145
0.262694
0.262321
0.262024
0.2618
0.261648
0.261565
0.261549
0.261596
0.261705
0.261875
0.262104
0.262391
0.262733
0.263129
0.263578
0.264078
0.264627
0.265225
0.26587
0.266561
0.267296
0.268075
0.268896
0.269759
0.270661
0.271603
0.272584
0.273602
0.274656
0.275746
0.276871
0.278031
0.279224
0.28045
0.281707
0.282996
0.284316
0.285667
0.287046
0.288455
0.289892
0.291358
0.29285
0.29437
0.295916
0.297488
0.299085
0.300708
0.302355
0.304026
0.305721
0.30744
0.309182
0.310946
0.312733
0.314542
0.316372
0.318224
0.320097
0.32199
0.323904
0.325837
0.32779
0.329763
0.331755
0.333765
0.335794
0.337842
0.339907
0.34199
0.34409
0.346207
0.348342
0.350492
0.35266
0.354843
0.357042
0.359257
0.361487
0.363732
0.365992
0.368266
0.370555
0.372858
0.375175
0.377505
0.379849
0.382206
0.384575
0.386958
0.389352
0.391758
0.394177
0.396607
0.399047
0.401499
0.403962
0.406432
0.408909
0.411396
0.413893
0.416398
0.418912
0.421435
0.423966
0.426504
0.42905
0.431603
0.434162
0.436728
0.439299
0.441876
0.444458
0.447045
0.449636
0.452231
0.454829
0.45743
0.460034
0.462639
0.465246
0.467854
0.470463
0.473071
0.475678
0.478285
0.480889
0.483491
0.48609
0.488686
0.491277
0.493862
0.496442
0.499016
0.501582
0.50414
0.506688
0.509227
0.511756
0.514272
0.516777
0.519267
0.521743
0.524203
0.526647
0.529073
0.531479
0.533866
0.536231
0.538574
0.540892
0.543185
0.545451
0.547689
0.549897
0.552074
0.554218
0.556327
0.5584
0.560435
0.56243
0.564384
0.566294
0.568158
0.569976
0.571743
0.573459
0.575121
0.576727
0.578275
0.579761
0.581185
0.582543
0.583832
0.585051
0.586195
0.587263
0.588252
0.589158
0.589978
0.590708
0.591346
0.591888
0.59233
0.592668
0.592898
0.593015
0.000148692
0.000147404
0.000146137
0.00014489
0.000143663
0.000142457
0.000141269
0.000140101
0.000138951
0.000137819
0.000136704
0.000135607
0.000134527
0.000133464
0.000132417
0.000131387
0.000130375
0.00012938
0.000128404
0.000127448
0.000126516
0.000125612
0.000124745
0.000123931
0.000123197
0.000122595
0.000122227
0.0001223
0.000123256
0.000126079
0.000133085
0.000150026
0.000191797
0.000295507
0.000524566
0.000964336
0.0016772
0.00270933
0.00410433
0.00594383
0.00834237
0.011414
0.0152728
0.0200854
0.0260265
0.0330209
0.0409988
0.049763
0.0590365
0.0684626
0.0776863
0.0864309
0.0945458
0.102013
0.1089
0.115311
0.121343
0.127075
0.132574
0.137889
0.143058
0.148112
0.153078
0.157984
0.162856
0.167714
0.172576
0.177456
0.182369
0.187329
0.192349
0.197441
0.202617
0.207887
0.21326
0.218746
0.224356
0.230098
0.235984
0.242021
0.248217
0.254582
0.26112
0.267835
0.274734
0.281828
0.289125
0.296636
0.304368
0.312333
0.320538
0.328994
0.33771
0.346697
0.355964
0.365523
0.375383
0.385553
0.396044
0.406865
0.418023
0.429529
0.44139
0.453614
0.466209
0.479181
0.492536
0.506281
0.520417
0.534949
0.549879
0.565205
0.580928
0.597044
0.613549
0.630436
0.647696
0.665318
0.683289
0.701593
0.720211
0.739123
0.758303
0.777724
0.797356
0.817164
0.837112
0.857159
0.87726
0.897368
0.917432
0.937397
0.957207
0.976796
0.996104
1.01507
1.03365
1.05176
1.06935
1.08637
1.10275
1.11842
1.13335
1.14747
1.16073
1.17308
1.18448
1.19489
1.20427
1.21258
1.2198
1.22591
1.23088
1.23471
1.23738
1.23889
1.23925
1.23847
1.23655
1.23351
1.22937
1.22417
1.21792
1.21067
1.20245
1.19329
1.18325
1.17236
1.16067
1.14823
1.13507
1.12126
1.10685
1.09188
1.07641
1.06049
1.04417
1.0275
1.01052
0.993287
0.975838
0.958219
0.940472
0.922636
0.904751
0.886851
0.868972
0.851147
0.833406
0.815778
0.79829
0.780968
0.763835
0.746912
0.73022
0.713776
0.697597
0.681699
0.666093
0.650792
0.635807
0.621146
0.606817
0.592826
0.57918
0.565881
0.552934
0.540339
0.528099
0.516213
0.504681
0.493501
0.482672
0.47219
0.462053
0.452257
0.442797
0.433669
0.424867
0.416386
0.40822
0.400363
0.392809
0.38555
0.378582
0.371895
0.365485
0.359343
0.353463
0.347837
0.342459
0.337321
0.332417
0.32774
0.323282
0.319037
0.314998
0.31116
0.307514
0.304055
0.300778
0.297675
0.294741
0.29197
0.289357
0.286896
0.284582
0.282411
0.280376
0.278473
0.276699
0.275047
0.273515
0.272097
0.27079
0.26959
0.268494
0.267497
0.266597
0.26579
0.265073
0.264443
0.263897
0.263433
0.263047
0.262737
0.262501
0.262337
0.262241
0.262212
0.262247
0.262344
0.262501
0.262718
0.262992
0.263321
0.263705
0.264141
0.264629
0.265166
0.265751
0.266383
0.267061
0.267784
0.26855
0.269358
0.270207
0.271097
0.272026
0.272993
0.273998
0.275039
0.276116
0.277227
0.278373
0.279553
0.280765
0.282009
0.283284
0.284591
0.285927
0.287293
0.288688
0.290111
0.291562
0.293041
0.294546
0.296078
0.297636
0.299219
0.300827
0.30246
0.304117
0.305798
0.307502
0.30923
0.31098
0.312752
0.314546
0.316362
0.3182
0.320058
0.321936
0.323836
0.325755
0.327694
0.329652
0.331629
0.333625
0.33564
0.337673
0.339723
0.341792
0.343878
0.345981
0.348101
0.350238
0.352391
0.35456
0.356745
0.358945
0.361161
0.363393
0.365639
0.367899
0.370174
0.372464
0.374767
0.377083
0.379413
0.381757
0.384113
0.386482
0.388863
0.391256
0.393661
0.396078
0.398506
0.400945
0.403394
0.405851
0.408316
0.410791
0.413274
0.415768
0.41827
0.42078
0.423299
0.425825
0.428359
0.4309
0.433448
0.436002
0.438562
0.441127
0.443698
0.446274
0.448854
0.451438
0.454026
0.456616
0.459209
0.461805
0.464402
0.467
0.469598
0.472197
0.474795
0.477393
0.479988
0.482581
0.485172
0.487759
0.490341
0.492919
0.495491
0.498057
0.500615
0.503166
0.505708
0.50824
0.510762
0.513273
0.515771
0.518256
0.520726
0.523181
0.52562
0.528041
0.530444
0.532826
0.535188
0.537527
0.539842
0.542132
0.544396
0.546632
0.548838
0.551013
0.553156
0.555264
0.557336
0.559371
0.561366
0.56332
0.56523
0.567096
0.568914
0.570682
0.5724
0.574063
0.575671
0.577221
0.578709
0.580135
0.581495
0.582787
0.584007
0.585154
0.586224
0.587214
0.588121
0.588943
0.589674
0.590313
0.590855
0.591297
0.591634
0.591864
0.591981
0.000148692
0.000147404
0.000146136
0.000144889
0.000143662
0.000142454
0.000141266
0.000140097
0.000138945
0.000137812
0.000136696
0.000135597
0.000134515
0.00013345
0.000132401
0.000131369
0.000130353
0.000129354
0.000128371
0.000127406
0.000126459
0.000125531
0.000124625
0.000123742
0.000122889
0.000122073
0.000121307
0.000120615
0.000120047
0.000119712
0.000119866
0.000121147
0.000125249
0.000136708
0.000165291
0.000227644
0.000343965
0.000536133
0.00082654
0.00124398
0.00182558
0.00261774
0.00367628
0.00507856
0.00692538
0.00931663
0.0123565
0.0161503
0.0208278
0.026421
0.0328817
0.0401151
0.0479502
0.0561664
0.0645092
0.0727484
0.0807052
0.0882799
0.0954519
0.102251
0.10873
0.114936
0.120915
0.12671
0.132356
0.137888
0.143331
0.148706
0.154036
0.159342
0.164643
0.169956
0.175298
0.180681
0.18612
0.191627
0.197213
0.202892
0.208674
0.214571
0.220592
0.226747
0.233045
0.23949
0.246085
0.25284
0.259765
0.26687
0.274165
0.28166
0.289365
0.29729
0.305445
0.31384
0.322487
0.331396
0.340577
0.350041
0.359798
0.369858
0.380229
0.390923
0.401947
0.41331
0.425023
0.437092
0.449526
0.462332
0.475517
0.489084
0.50304
0.517386
0.532126
0.547259
0.562785
0.578702
0.595005
0.611687
0.628742
0.646157
0.66392
0.682016
0.700426
0.719128
0.7381
0.757312
0.776734
0.796331
0.816066
0.835898
0.85578
0.875664
0.895498
0.915221
0.93477
0.954089
0.973123
0.991812
1.0101
1.02792
1.04521
1.06193
1.078
1.09337
1.10798
1.12178
1.13473
1.14676
1.15784
1.16793
1.17698
1.18498
1.19188
1.19767
1.20234
1.20586
1.20823
1.20945
1.20952
1.20846
1.20627
1.20297
1.19859
1.19315
1.18669
1.17923
1.17081
1.16148
1.15128
1.14025
1.12843
1.11588
1.10264
1.08878
1.07433
1.05935
1.0439
1.02802
1.01176
0.99517
0.978301
0.961197
0.943903
0.926463
0.908918
0.891307
0.87367
0.856042
0.838458
0.820949
0.803547
0.786279
0.769173
0.752252
0.735539
0.719055
0.702819
0.686848
0.671158
0.655763
0.640673
0.625901
0.611456
0.597345
0.583575
0.57015
0.557076
0.544355
0.531988
0.519978
0.508323
0.497022
0.486076
0.475479
0.465231
0.455327
0.445763
0.436534
0.427636
0.419062
0.410807
0.402865
0.395229
0.387893
0.380851
0.374094
0.367616
0.36141
0.355469
0.349786
0.344353
0.339163
0.334209
0.329484
0.324981
0.320694
0.316615
0.312737
0.309055
0.305561
0.30225
0.299115
0.29615
0.293351
0.29071
0.288222
0.285882
0.283686
0.281627
0.279702
0.277905
0.276232
0.274678
0.27324
0.271913
0.270694
0.269579
0.268564
0.267645
0.266821
0.266086
0.265439
0.264876
0.264394
0.263992
0.263665
0.263413
0.263232
0.26312
0.263075
0.263093
0.263174
0.263315
0.263516
0.263773
0.264087
0.264454
0.264874
0.265345
0.265866
0.266435
0.267051
0.267712
0.268418
0.269167
0.269959
0.270792
0.271664
0.272576
0.273526
0.274514
0.275538
0.276598
0.277692
0.27882
0.279982
0.281177
0.282403
0.283661
0.284949
0.286268
0.287616
0.288993
0.290398
0.291831
0.293291
0.294779
0.296292
0.297832
0.299396
0.300986
0.302601
0.304239
0.305902
0.307587
0.309296
0.311028
0.312781
0.314557
0.316354
0.318173
0.320013
0.321873
0.323753
0.325654
0.327574
0.329513
0.331472
0.333449
0.335445
0.33746
0.339492
0.341542
0.34361
0.345694
0.347796
0.349914
0.352049
0.3542
0.356366
0.358549
0.360747
0.36296
0.365188
0.367431
0.369688
0.371959
0.374245
0.376544
0.378856
0.381182
0.383521
0.385872
0.388236
0.390612
0.393
0.3954
0.397811
0.400233
0.402666
0.405107
0.407555
0.410013
0.412481
0.414958
0.417444
0.419938
0.422441
0.424952
0.427471
0.429996
0.432529
0.435068
0.437613
0.440164
0.44272
0.445282
0.447848
0.450418
0.452991
0.455568
0.458148
0.46073
0.463314
0.465899
0.468485
0.471071
0.473657
0.476242
0.478826
0.481408
0.483987
0.486563
0.489135
0.491702
0.494264
0.49682
0.499368
0.50191
0.504443
0.506966
0.509479
0.511982
0.514472
0.516949
0.519413
0.521861
0.524293
0.526709
0.529105
0.531482
0.533839
0.536173
0.538484
0.540771
0.543031
0.545263
0.547467
0.54964
0.55178
0.553887
0.555958
0.557992
0.559987
0.561941
0.563852
0.565718
0.567537
0.569307
0.571025
0.572691
0.574301
0.575852
0.577343
0.578772
0.580134
0.581428
0.582652
0.583801
0.584873
0.585866
0.586775
0.587599
0.588332
0.588972
0.589515
0.589958
0.590296
0.590526
0.590644
0.000148692
0.000147403
0.000146136
0.000144888
0.000143661
0.000142454
0.000141266
0.000140096
0.000138945
0.000137812
0.000136696
0.000135598
0.000134517
0.000133452
0.000132404
0.000131373
0.000130357
0.000129359
0.000128376
0.000127411
0.000126463
0.000125534
0.000124624
0.000123736
0.00012287
0.000122032
0.000121224
0.000120452
0.000119726
0.000119061
0.000118486
0.000118072
0.000117996
0.000118738
0.000121475
0.00012863
0.000144093
0.000173119
0.000222227
0.000299544
0.000415408
0.000583556
0.00082108
0.00115073
0.00160337
0.00221765
0.00304031
0.00413017
0.005564
0.00742792
0.00980828
0.0127932
0.0164687
0.0209249
0.0261355
0.032067
0.0386266
0.045673
0.0530366
0.0605359
0.0680142
0.0753479
0.0824599
0.0893245
0.0959505
0.102368
0.108603
0.114682
0.120629
0.126469
0.132226
0.137922
0.143578
0.149212
0.154839
0.160476
0.166137
0.171839
0.177596
0.183421
0.189325
0.19532
0.201418
0.20763
0.213956
0.220398
0.226971
0.233684
0.240549
0.247576
0.254776
0.26216
0.269737
0.277521
0.285521
0.29375
0.302218
0.310937
0.319916
0.329167
0.338699
0.348523
0.358649
0.369086
0.379846
0.390938
0.402371
0.414155
0.426299
0.438809
0.451692
0.464956
0.478604
0.492642
0.507072
0.521897
0.537116
0.552728
0.568731
0.585119
0.601885
0.619019
0.636511
0.654344
0.672503
0.690965
0.709708
0.728704
0.747923
0.76733
0.786886
0.80655
0.826275
0.846011
0.865688
0.885255
0.904658
0.923842
0.942749
0.96132
0.979497
0.997219
1.01442
1.03105
1.04705
1.06235
1.0769
1.09064
1.10353
1.11551
1.12654
1.13658
1.14559
1.15354
1.1604
1.16614
1.17076
1.17423
1.17656
1.17773
1.17776
1.17665
1.17441
1.17107
1.16665
1.16117
1.15467
1.14718
1.13874
1.12939
1.11917
1.10814
1.09633
1.0838
1.0706
1.05678
1.0424
1.0275
1.01215
0.996376
0.980246
0.963806
0.947104
0.930186
0.913097
0.895882
0.878582
0.861237
0.843886
0.826565
0.809308
0.792147
0.775111
0.75823
0.741528
0.72503
0.708758
0.692731
0.676968
0.661485
0.646296
0.631414
0.61685
0.602614
0.588713
0.575155
0.561944
0.549085
0.53658
0.524431
0.51264
0.501205
0.490125
0.479399
0.469025
0.458997
0.449314
0.43997
0.43096
0.422279
0.413921
0.40588
0.398149
0.390722
0.383592
0.376752
0.370195
0.363914
0.357901
0.352149
0.346651
0.341399
0.336386
0.331604
0.327048
0.322709
0.318582
0.314658
0.310931
0.307395
0.304043
0.30087
0.297869
0.295034
0.292359
0.289839
0.287468
0.285241
0.283154
0.2812
0.279376
0.277677
0.276098
0.274635
0.273284
0.272041
0.270903
0.269865
0.268925
0.268078
0.267322
0.266654
0.26607
0.265568
0.265145
0.264798
0.264525
0.264324
0.264192
0.264128
0.264126
0.264187
0.264309
0.264489
0.264728
0.265021
0.265369
0.265769
0.266221
0.266721
0.26727
0.267866
0.268508
0.269193
0.269922
0.270694
0.271506
0.272358
0.273249
0.274179
0.275146
0.276149
0.277187
0.278261
0.279368
0.280509
0.281682
0.282887
0.284124
0.28539
0.286687
0.288013
0.289369
0.290752
0.292163
0.293601
0.295067
0.296558
0.298075
0.299618
0.301185
0.302778
0.304394
0.306034
0.307697
0.309383
0.311092
0.312824
0.314577
0.316352
0.318148
0.319964
0.321802
0.32366
0.325538
0.327435
0.329352
0.331288
0.333243
0.335217
0.337209
0.339219
0.341246
0.343291
0.345354
0.347433
0.349529
0.351641
0.35377
0.355915
0.358075
0.360251
0.362442
0.364649
0.36687
0.369105
0.371355
0.373619
0.375896
0.378188
0.380492
0.38281
0.38514
0.387483
0.389838
0.392205
0.394584
0.396975
0.399377
0.40179
0.40421
0.406638
0.409077
0.411525
0.413982
0.416449
0.418924
0.421408
0.4239
0.4264
0.428907
0.431421
0.433942
0.436469
0.439002
0.441541
0.444084
0.446633
0.449186
0.451743
0.454303
0.456866
0.459432
0.462
0.464569
0.46714
0.469711
0.472282
0.474852
0.477422
0.479989
0.482554
0.485117
0.487675
0.49023
0.492779
0.495322
0.497859
0.500389
0.502911
0.505423
0.507926
0.510418
0.512899
0.515367
0.517821
0.520261
0.522685
0.525093
0.527482
0.529853
0.532203
0.534531
0.536837
0.539118
0.541374
0.543602
0.545802
0.547972
0.55011
0.552215
0.554284
0.556317
0.558311
0.560264
0.562175
0.564042
0.565862
0.567633
0.569353
0.57102
0.572632
0.574186
0.57568
0.577111
0.578476
0.579774
0.581
0.582153
0.583228
0.584224
0.585136
0.585962
0.586698
0.58734
0.587886
0.58833
0.58867
0.588902
0.58902
0.000148692
0.000147403
0.000146135
0.000144888
0.000143661
0.000142454
0.000141266
0.000140096
0.000138945
0.000137812
0.000136696
0.000135597
0.000134516
0.000133451
0.000132403
0.000131371
0.000130355
0.000129355
0.000128372
0.000127406
0.000126457
0.000125526
0.000124614
0.000123721
0.000122851
0.000122004
0.000121184
0.000120393
0.000119635
0.000118915
0.000118238
0.000117612
0.000117057
0.000116616
0.000116409
0.000116713
0.000118071
0.000121377
0.000127943
0.000139589
0.000158734
0.000188651
0.000233625
0.000299311
0.000393206
0.000525338
0.000708996
0.000961378
0.00130521
0.00177071
0.00239509
0.00322268
0.00430898
0.00572489
0.00754341
0.00983855
0.0126845
0.016151
0.0202888
0.0250744
0.0304722
0.0364035
0.0427557
0.0493982
0.0561959
0.0630347
0.069827
0.0765118
0.0830602
0.0894668
0.095743
0.101906
0.107974
0.113961
0.119883
0.125755
0.131595
0.137418
0.143241
0.149081
0.154949
0.160859
0.166824
0.172857
0.178974
0.185165
0.191437
0.197805
0.20428
0.210875
0.2176
0.224468
0.231489
0.238675
0.246041
0.253596
0.261355
0.269327
0.277525
0.285958
0.294638
0.303575
0.312781
0.322267
0.332044
0.342124
0.352518
0.363237
0.374292
0.385691
0.397445
0.409562
0.42205
0.434918
0.448172
0.461818
0.475861
0.490304
0.50515
0.5204
0.536051
0.552101
0.568545
0.585375
0.60258
0.620148
0.638062
0.656303
0.674849
0.693672
0.712743
0.732026
0.751484
0.771075
0.790736
0.810408
0.830045
0.849593
0.869001
0.888212
0.907167
0.925807
0.944071
0.961897
0.979224
0.995988
1.01213
1.02759
1.0423
1.05622
1.06928
1.08144
1.09264
1.10286
1.11204
1.12016
1.12718
1.13308
1.13784
1.14145
1.14391
1.1452
1.14534
1.14434
1.1422
1.13895
1.13461
1.1292
1.12277
1.11535
1.10697
1.09768
1.08753
1.07656
1.06483
1.05238
1.03927
1.02555
1.01128
0.996501
0.981276
0.965655
0.949689
0.933428
0.916921
0.900217
0.883361
0.866397
0.849368
0.832315
0.815275
0.798284
0.781377
0.764586
0.747939
0.731466
0.715189
0.699134
0.683321
0.667769
0.652494
0.637513
0.622839
0.608482
0.594454
0.580761
0.567412
0.554411
0.541763
0.52947
0.517534
0.505956
0.494735
0.48387
0.473358
0.463197
0.453384
0.443913
0.434781
0.425981
0.417509
0.409358
0.401521
0.393993
0.386766
0.379833
0.373187
0.36682
0.360726
0.354896
0.349324
0.344001
0.338921
0.334075
0.329458
0.32506
0.320877
0.3169
0.313122
0.309538
0.30614
0.302922
0.299878
0.297002
0.294288
0.29173
0.289323
0.287061
0.28494
0.282954
0.281098
0.279368
0.27776
0.276268
0.274889
0.273619
0.272453
0.271389
0.270423
0.269551
0.26877
0.268077
0.267468
0.266942
0.266495
0.266125
0.265829
0.265604
0.265449
0.265361
0.265337
0.265375
0.265473
0.265631
0.265846
0.266117
0.266442
0.266819
0.267247
0.267725
0.26825
0.268823
0.269441
0.270103
0.270809
0.271556
0.272344
0.273173
0.27404
0.274946
0.275888
0.276867
0.277881
0.27893
0.280013
0.281129
0.282278
0.283458
0.284669
0.285911
0.287183
0.288484
0.289813
0.291171
0.292557
0.29397
0.295409
0.296875
0.298366
0.299883
0.301425
0.302991
0.304581
0.306195
0.307833
0.309493
0.311176
0.312881
0.314608
0.316356
0.318126
0.319916
0.321728
0.323559
0.325411
0.327282
0.329173
0.331083
0.333012
0.334959
0.336925
0.338908
0.34091
0.342929
0.344965
0.347019
0.349089
0.351175
0.353278
0.355397
0.357532
0.359683
0.361848
0.364029
0.366225
0.368435
0.37066
0.372898
0.375151
0.377417
0.379697
0.38199
0.384296
0.386614
0.388945
0.391288
0.393643
0.39601
0.398388
0.400777
0.403174
0.405579
0.407994
0.410419
0.412854
0.415298
0.417751
0.420212
0.422682
0.42516
0.427645
0.430138
0.432637
0.435143
0.437655
0.440173
0.442696
0.445225
0.447758
0.450295
0.452835
0.455379
0.457926
0.460475
0.463026
0.465578
0.468132
0.470685
0.473238
0.47579
0.478341
0.48089
0.483437
0.48598
0.488519
0.491053
0.493582
0.496105
0.498621
0.501129
0.503629
0.506119
0.508599
0.511068
0.513525
0.515969
0.518399
0.520813
0.523212
0.525592
0.527955
0.530297
0.532618
0.534917
0.537192
0.539443
0.541666
0.543862
0.546027
0.548162
0.550264
0.552331
0.554362
0.556354
0.558307
0.560218
0.562084
0.563905
0.565677
0.567399
0.569068
0.570682
0.572238
0.573735
0.575169
0.576537
0.577838
0.579068
0.580224
0.581303
0.582302
0.583218
0.584048
0.584787
0.585433
0.585982
0.586429
0.586772
0.587005
0.587124
0.000148692
0.000147403
0.000146136
0.000144888
0.000143661
0.000142454
0.000141266
0.000140096
0.000138945
0.000137812
0.000136697
0.000135598
0.000134517
0.000133452
0.000132404
0.000131373
0.000130357
0.000129358
0.000128375
0.000127409
0.000126459
0.000125527
0.000124613
0.000123718
0.000122843
0.00012199
0.000121161
0.000120357
0.000119581
0.000118835
0.000118121
0.000117442
0.000116799
0.000116194
0.000115636
0.00011515
0.000114793
0.000114679
0.000115006
0.000116085
0.000118372
0.000122522
0.000129438