# vtk DataFile Version 2.0
sampleSurface
ASCII
DATASET POLYDATA
POINTS 600 double
-0.08 -0.236289 0.04
-0.08 -0.236289 -0.04
0.08 -0.236289 0.04
0.08 -0.236289 -0.04
-0.236289 -0.08 0.04
-0.236289 -0.08 -0.04
0.236289 -0.08 0.04
0.236289 -0.08 -0.04
-0.236289 0.08 0.04
-0.236289 0.08 -0.04
0.236289 0.08 0.04
0.236289 0.08 -0.04
-0.08 0.236289 0.04
-0.08 0.236289 -0.04
0.08 0.236289 0.04
0.08 0.236289 -0.04
-0.165499 -0.186667 -0.04
-0.165499 -0.186667 0.04
0.165499 -0.186667 0.04
0.165499 -0.186667 -0.04
-0.186667 -0.165499 -0.04
-0.186667 -0.165499 0.04
0.186667 -0.165499 -0.04
0.186667 -0.165499 0.04
-0.186667 0.165499 -0.04
-0.186667 0.165499 0.04
0.186667 0.165499 -0.04
0.186667 0.165499 0.04
-0.165499 0.186667 0.04
-0.165499 0.186667 -0.04
0.165499 0.186667 0.04
0.165499 0.186667 -0.04
-0.139726 -0.206667 -0.04
-0.139726 -0.206667 0.04
0.139726 -0.206667 0.04
0.139726 -0.206667 -0.04
-0.206667 -0.139726 0.04
-0.206667 -0.139726 -0.04
0.206667 -0.139726 -0.04
0.206667 -0.139726 0.04
-0.206667 0.139726 -0.04
-0.206667 0.139726 0.04
0.206667 0.139726 -0.04
0.206667 0.139726 0.04
-0.139726 0.206667 0.04
-0.139726 0.206667 -0.04
0.139726 0.206667 0.04
0.139726 0.206667 -0.04
-0.14 -0.206484 0.04
-0.14 -0.206484 -0.04
0.14 -0.206484 -0.04
0.14 -0.206484 0.04
-0.206484 -0.14 0.04
-0.206484 -0.14 -0.04
0.206484 -0.14 0.04
0.206484 -0.14 -0.04
-0.206484 0.14 0.04
-0.206484 0.14 -0.04
0.206484 0.14 -0.04
0.206484 0.14 0.04
-0.14 0.206484 0.04
-0.14 0.206484 -0.04
0.14 0.206484 0.04
0.14 0.206484 -0.04
-0.0466667 -0.245069 0.04
-0.0466667 -0.245069 -0.04
0.0466667 -0.245069 0.04
0.0466667 -0.245069 -0.04
-0.245069 -0.0466667 0.04
-0.245069 -0.0466667 -0.04
0.245069 -0.0466667 0.04
0.245069 -0.0466667 -0.04
-0.245069 0.0466667 0.04
-0.245069 0.0466667 -0.04
0.245069 0.0466667 0.04
0.245069 0.0466667 -0.04
-0.0466667 0.245069 0.04
-0.0466667 0.245069 -0.04
0.0466667 0.245069 0.04
0.0466667 0.245069 -0.04
-0.166667 -0.185642 -0.04
-0.166667 -0.185642 0.04
0.166667 -0.185642 -0.04
0.166667 -0.185642 0.04
-0.185642 -0.166667 -0.04
-0.185642 -0.166667 0.04
0.185642 -0.166667 0.04
0.185642 -0.166667 -0.04
-0.185642 0.166667 0.04
-0.185642 0.166667 -0.04
0.185642 0.166667 0.04
0.185642 0.166667 -0.04
-0.166667 0.185642 -0.04
-0.166667 0.185642 0.04
0.166667 0.185642 -0.04
0.166667 0.185642 0.04
-0.0133333 -0.249126 0.04
-0.0133333 -0.249126 -0.04
0.0133333 -0.249126 0.04
0.0133333 -0.249126 -0.04
-0.249126 -0.0133333 0.04
-0.249126 -0.0133333 -0.04
0.249126 -0.0133333 0.04
0.249126 -0.0133333 -0.04
-0.249126 0.0133333 0.04
-0.249126 0.0133333 -0.04
0.249126 0.0133333 0.04
0.249126 0.0133333 -0.04
-0.0133333 0.249126 0.04
-0.0133333 0.249126 -0.04
0.0133333 0.249126 0.04
0.0133333 0.249126 -0.04
-0.113333 -0.22226 -0.04
-0.113333 -0.22226 0.04
0.113333 -0.22226 0.04
0.113333 -0.22226 -0.04
-0.22226 -0.113333 0.04
-0.22226 -0.113333 -0.04
0.22226 -0.113333 0.04
0.22226 -0.113333 -0.04
-0.22226 0.113333 0.04
-0.22226 0.113333 -0.04
0.22226 0.113333 0.04
0.22226 0.113333 -0.04
-0.113333 0.22226 -0.04
-0.113333 0.22226 0.04
0.113333 0.22226 0.04
0.113333 0.22226 -0.04
-0.02 -0.248689 0.04
-0.02 -0.248689 -0.04
0.02 -0.248689 0.04
0.02 -0.248689 -0.04
-0.248689 -0.02 0.04
-0.248689 -0.02 -0.04
0.248689 -0.02 0.04
0.248689 -0.02 -0.04
-0.248689 0.02 0.04
-0.248689 0.02 -0.04
0.248689 0.02 0.04
0.248689 0.02 -0.04
-0.02 0.248689 0.04
-0.02 0.248689 -0.04
0.02 0.248689 0.04
0.02 0.248689 -0.04
-0.106667 -0.225547 0.04
-0.106667 -0.225547 -0.04
0.106667 -0.225547 -0.04
0.106667 -0.225547 0.04
-0.225547 -0.106667 0.04
-0.225547 -0.106667 -0.04
0.225547 -0.106667 0.04
0.225547 -0.106667 -0.04
-0.225547 0.106667 0.04
-0.225547 0.106667 -0.04
0.225547 0.106667 0.04
0.225547 0.106667 -0.04
-0.106667 0.225547 0.04
-0.106667 0.225547 -0.04
0.106667 0.225547 -0.04
0.106667 0.225547 0.04
-0.0533333 -0.243743 0.04
-0.0533333 -0.243743 -0.04
0.0533333 -0.243743 0.04
0.0533333 -0.243743 -0.04
-0.243743 -0.0533333 0.04
-0.243743 -0.0533333 -0.04
0.243743 -0.0533333 0.04
0.243743 -0.0533333 -0.04
-0.243743 0.0533333 0.04
-0.243743 0.0533333 -0.04
0.243743 0.0533333 0.04
0.243743 0.0533333 -0.04
-0.0533333 0.243743 0.04
-0.0533333 0.243743 -0.04
0.0533333 0.243743 0.04
0.0533333 0.243743 -0.04
-0.16 -0.191489 -0.04
-0.16 -0.191489 0.04
0.16 -0.191489 -0.04
0.16 -0.191489 0.04
-0.191489 -0.16 -0.04
-0.191489 -0.16 0.04
0.191489 -0.16 0.04
0.191489 -0.16 -0.04
-0.191489 0.16 0.04
-0.191489 0.16 -0.04
0.191489 0.16 0.04
0.191489 0.16 -0.04
-0.16 0.191489 -0.04
-0.16 0.191489 0.04
0.16 0.191489 -0.04
0.16 0.191489 0.04
-0.133333 -0.210938 -0.04
-0.133333 -0.210938 0.04
0.133333 -0.210938 -0.04
0.133333 -0.210938 0.04
-0.210938 -0.133333 0.04
-0.210938 -0.133333 -0.04
0.210938 -0.133333 0.04
0.210938 -0.133333 -0.04
-0.210938 0.133333 0.04
-0.210938 0.133333 -0.04
0.210938 0.133333 0.04
0.210938 0.133333 -0.04
-0.133333 0.210938 -0.04
-0.133333 0.210938 0.04
0.133333 0.210938 -0.04
0.133333 0.210938 0.04
-0.104397 -0.226667 -0.04
-0.104397 -0.226667 0.04
0.104397 -0.226667 0.04
0.104397 -0.226667 -0.04
-0.226667 -0.104397 0.04
-0.226667 -0.104397 -0.04
0.226667 -0.104397 -0.04
0.226667 -0.104397 0.04
-0.226667 0.104397 -0.04
-0.226667 0.104397 0.04
0.226667 0.104397 -0.04
0.226667 0.104397 0.04
-0.104397 0.226667 0.04
-0.104397 0.226667 -0.04
0.104397 0.226667 0.04
0.104397 0.226667 -0.04
-0.0866667 -0.234026 -0.04
-0.0866667 -0.234026 0.04
0.0866667 -0.234026 0.04
0.0866667 -0.234026 -0.04
-0.234026 -0.0866667 0.04
-0.234026 -0.0866667 -0.04
0.234026 -0.0866667 0.04
0.234026 -0.0866667 -0.04
-0.234026 0.0866667 0.04
-0.234026 0.0866667 -0.04
0.234026 0.0866667 0.04
0.234026 0.0866667 -0.04
-0.0866667 0.234026 -0.04
-0.0866667 0.234026 0.04
0.0866667 0.234026 0.04
0.0866667 0.234026 -0.04
-0.0733333 -0.238552 0.04
-0.0733333 -0.238552 -0.04
0.0733333 -0.238552 -0.04
0.0733333 -0.238552 0.04
-0.238552 -0.0733333 0.04
-0.238552 -0.0733333 -0.04
0.238552 -0.0733333 0.04
0.238552 -0.0733333 -0.04
-0.238552 0.0733333 0.04
-0.238552 0.0733333 -0.04
0.238552 0.0733333 0.04
0.238552 0.0733333 -0.04
-0.0733333 0.238552 0.04
-0.0733333 0.238552 -0.04
0.0733333 0.238552 -0.04
0.0733333 0.238552 0.04
-0.117915 -0.22 -0.04
-0.117915 -0.22 0.04
0.117915 -0.22 0.04
0.117915 -0.22 -0.04
-0.22 -0.117915 0.04
-0.22 -0.117915 -0.04
0.22 -0.117915 -0.04
0.22 -0.117915 0.04
-0.22 0.117915 -0.04
-0.22 0.117915 0.04
0.22 0.117915 -0.04
0.22 0.117915 0.04
-0.117915 0.22 0.04
-0.117915 0.22 -0.04
0.117915 0.22 0.04
0.117915 0.22 -0.04
-0.157897 -0.193333 -0.04
-0.157897 -0.193333 0.04
0.157897 -0.193333 0.04
0.157897 -0.193333 -0.04
-0.193333 -0.157897 -0.04
-0.193333 -0.157897 0.04
0.193333 -0.157897 -0.04
0.193333 -0.157897 0.04
-0.193333 0.157897 -0.04
-0.193333 0.157897 0.04
0.193333 0.157897 -0.04
0.193333 0.157897 0.04
-0.157897 0.193333 0.04
-0.157897 0.193333 -0.04
0.157897 0.193333 0.04
0.157897 0.193333 -0.04
-0.04 -0.246395 0.04
-0.04 -0.246395 -0.04
0.04 -0.246395 -0.04
0.04 -0.246395 0.04
-0.246395 -0.04 0.04
-0.246395 -0.04 -0.04
0.246395 -0.04 0.04
0.246395 -0.04 -0.04
-0.246395 0.04 0.04
-0.246395 0.04 -0.04
0.246395 0.04 -0.04
0.246395 0.04 0.04
-0.04 0.246395 0.04
-0.04 0.246395 -0.04
0.04 0.246395 0.04
0.04 0.246395 -0.04
-0.0887085 -0.233333 -0.04
-0.0887085 -0.233333 0.04
0.0887085 -0.233333 0.04
0.0887085 -0.233333 -0.04
-0.233333 -0.0887085 0.04
-0.233333 -0.0887085 -0.04
0.233333 -0.0887085 -0.04
0.233333 -0.0887085 0.04
-0.233333 0.0887085 -0.04
-0.233333 0.0887085 0.04
0.233333 0.0887085 -0.04
0.233333 0.0887085 0.04
-0.0887085 0.233333 0.04
-0.0887085 0.233333 -0.04
0.0887085 0.233333 0.04
0.0887085 0.233333 -0.04
-0.00666667 -0.249563 0.04
-0.00666667 -0.249563 -0.04
0.00666667 -0.249563 0.04
0.00666667 -0.249563 -0.04
-0.249563 -0.00666667 0.04
-0.249563 -0.00666667 -0.04
0.249563 -0.00666667 0.04
0.249563 -0.00666667 -0.04
-0.249563 0.00666667 0.04
-0.249563 0.00666667 -0.04
0.249563 0.00666667 0.04
0.249563 0.00666667 -0.04
-0.00666667 0.249563 0.04
-0.00666667 0.249563 -0.04
0.00666667 0.249563 0.04
0.00666667 0.249563 -0.04
-0.146667 -0.202029 -0.04
-0.146667 -0.202029 0.04
0.146667 -0.202029 0.04
0.146667 -0.202029 -0.04
-0.202029 -0.146667 0.04
-0.202029 -0.146667 -0.04
0.202029 -0.146667 0.04
0.202029 -0.146667 -0.04
-0.202029 0.146667 0.04
-0.202029 0.146667 -0.04
0.202029 0.146667 0.04
0.202029 0.146667 -0.04
-0.146667 0.202029 -0.04
-0.146667 0.202029 0.04
0.146667 0.202029 0.04
0.146667 0.202029 -0.04
-0.0386356 -0.246667 -0.04
-0.0386356 -0.246667 0.04
0.0386356 -0.246667 0.04
0.0386356 -0.246667 -0.04
-0.246667 -0.0386356 0.04
-0.246667 -0.0386356 -0.04
0.246667 -0.0386356 -0.04
0.246667 -0.0386356 0.04
-0.246667 0.0386356 -0.04
-0.246667 0.0386356 0.04
0.246667 0.0386356 -0.04
0.246667 0.0386356 0.04
-0.0386356 0.246667 0.04
-0.0386356 0.246667 -0.04
0.0386356 0.246667 0.04
0.0386356 0.246667 -0.04
-0.0266667 -0.248252 0.04
-0.0266667 -0.248252 -0.04
0.0266667 -0.248252 0.04
0.0266667 -0.248252 -0.04
-0.248252 -0.0266667 0.04
-0.248252 -0.0266667 -0.04
0.248252 -0.0266667 0.04
0.248252 -0.0266667 -0.04
-0.248252 0.0266667 0.04
-0.248252 0.0266667 -0.04
0.248252 0.0266667 0.04
0.248252 0.0266667 -0.04
-0.0266667 0.248252 0.04
-0.0266667 0.248252 -0.04
0.0266667 0.248252 0.04
0.0266667 0.248252 -0.04
-0.129748 -0.213333 -0.04
-0.129748 -0.213333 0.04
0.129748 -0.213333 0.04
0.129748 -0.213333 -0.04
-0.213333 -0.129748 0.04
-0.213333 -0.129748 -0.04
0.213333 -0.129748 -0.04
0.213333 -0.129748 0.04
-0.213333 0.129748 -0.04
-0.213333 0.129748 0.04
0.213333 0.129748 -0.04
0.213333 0.129748 0.04
-0.129748 0.213333 0.04
-0.129748 0.213333 -0.04
0.129748 0.213333 0.04
0.129748 0.213333 -0.04
-0.12 -0.218972 0.04
-0.12 -0.218972 -0.04
0.12 -0.218972 -0.04
0.12 -0.218972 0.04
-0.218972 -0.12 0.04
-0.218972 -0.12 -0.04
0.218972 -0.12 0.04
0.218972 -0.12 -0.04
-0.218972 0.12 0.04
-0.218972 0.12 -0.04
0.218972 0.12 0.04
0.218972 0.12 -0.04
-0.12 0.218972 0.04
-0.12 0.218972 -0.04
0.12 0.218972 -0.04
0.12 0.218972 0.04
-0.1731 -0.18 -0.04
-0.1731 -0.18 0.04
0.1731 -0.18 0.04
0.1731 -0.18 -0.04
-0.18 -0.1731 -0.04
-0.18 -0.1731 0.04
0.18 -0.1731 -0.04
0.18 -0.1731 0.04
-0.18 0.1731 -0.04
-0.18 0.1731 0.04
0.18 0.1731 0.04
0.18 0.1731 -0.04
-0.1731 0.18 0.04
-0.1731 0.18 -0.04
0.1731 0.18 0.04
0.1731 0.18 -0.04
-0.1 -0.228835 -0.04
-0.1 -0.228835 0.04
0.1 -0.228835 0.04
0.1 -0.228835 -0.04
-0.228835 -0.1 0.04
-0.228835 -0.1 -0.04
0.228835 -0.1 0.04
0.228835 -0.1 -0.04
-0.228835 0.1 0.04
-0.228835 0.1 -0.04
0.228835 0.1 0.04
0.228835 0.1 -0.04
-0.1 0.228835 -0.04
-0.1 0.228835 0.04
0.1 0.228835 0.04
0.1 0.228835 -0.04
-0.06 -0.242417 0.04
-0.06 -0.242417 -0.04
0.06 -0.242417 0.04
0.06 -0.242417 -0.04
-0.242417 -0.06 0.04
-0.242417 -0.06 -0.04
0.242417 -0.06 0.04
0.242417 -0.06 -0.04
-0.242417 0.06 0.04
-0.242417 0.06 -0.04
0.242417 0.06 0.04
0.242417 0.06 -0.04
-0.06 0.242417 0.04
-0.06 0.242417 -0.04
0.06 0.242417 0.04
0.06 0.242417 -0.04
-0.0690681 -0.24 -0.04
-0.0690681 -0.24 0.04
0.0690681 -0.24 0.04
0.0690681 -0.24 -0.04
-0.24 -0.0690681 0.04
-0.24 -0.0690681 -0.04
0.24 -0.0690681 -0.04
0.24 -0.0690681 0.04
-0.24 0.0690681 -0.04
-0.24 0.0690681 0.04
0.24 0.0690681 -0.04
0.24 0.0690681 0.04
-0.0690681 0.24 0.04
-0.0690681 0.24 -0.04
0.0690681 0.24 0.04
0.0690681 0.24 -0.04
-0.173333 -0.179795 -0.04
-0.179795 -0.173333 -0.04
-0.179795 -0.173333 0.04
-0.173333 -0.179795 0.04
0.179795 -0.173333 0.04
0.179795 -0.173333 -0.04
0.173333 -0.179795 -0.04
0.173333 -0.179795 0.04
-0.173333 0.179795 -0.04
-0.173333 0.179795 0.04
-0.179795 0.173333 0.04
-0.179795 0.173333 -0.04
0.179795 0.173333 0.04
0.173333 0.179795 0.04
0.173333 0.179795 -0.04
0.179795 0.173333 -0.04
-0.149703 -0.2 -0.04
-0.149703 -0.2 0.04
0.149703 -0.2 0.04
0.149703 -0.2 -0.04
-0.2 -0.149703 0.04
-0.2 -0.149703 -0.04
0.2 -0.149703 -0.04
0.2 -0.149703 0.04
-0.2 0.149703 -0.04
-0.2 0.149703 0.04
0.2 0.149703 -0.04
0.2 0.149703 0.04
-0.149703 0.2 0.04
-0.149703 0.2 -0.04
0.149703 0.2 0.04
0.149703 0.2 -0.04
-0.0933333 -0.231763 0.04
-0.0933333 -0.231763 -0.04
0.0933333 -0.231763 -0.04
0.0933333 -0.231763 0.04
-0.231763 -0.0933333 0.04
-0.231763 -0.0933333 -0.04
0.231763 -0.0933333 0.04
0.231763 -0.0933333 -0.04
-0.231763 0.0933333 0.04
-0.231763 0.0933333 -0.04
0.231763 0.0933333 0.04
0.231763 0.0933333 -0.04
-0.0933333 0.231763 0.04
-0.0933333 0.231763 -0.04
0.0933333 0.231763 -0.04
0.0933333 0.231763 0.04
-0.126667 -0.215378 -0.04
-0.126667 -0.215378 0.04
0.126667 -0.215378 0.04
0.126667 -0.215378 -0.04
-0.215378 -0.126667 0.04
-0.215378 -0.126667 -0.04
0.215378 -0.126667 0.04
0.215378 -0.126667 -0.04
-0.215378 0.126667 0.04
-0.215378 0.126667 -0.04
0.215378 0.126667 0.04
0.215378 0.126667 -0.04
-0.126667 0.215378 -0.04
-0.126667 0.215378 0.04
0.126667 0.215378 0.04
0.126667 0.215378 -0.04
-0.0666667 -0.240815 -0.04
-0.0666667 -0.240815 0.04
0.0666667 -0.240815 0.04
0.0666667 -0.240815 -0.04
-0.240815 -0.0666667 0.04
-0.240815 -0.0666667 -0.04
0.240815 -0.0666667 0.04
0.240815 -0.0666667 -0.04
-0.240815 0.0666667 0.04
-0.240815 0.0666667 -0.04
0.240815 0.0666667 0.04
0.240815 0.0666667 -0.04
-0.0666667 0.240815 -0.04
-0.0666667 0.240815 0.04
0.0666667 0.240815 0.04
0.0666667 0.240815 -0.04
-0.153333 -0.197325 -0.04
-0.153333 -0.197325 0.04
0.153333 -0.197325 -0.04
0.153333 -0.197325 0.04
-0.197325 -0.153333 -0.04
-0.197325 -0.153333 0.04
0.197325 -0.153333 0.04
0.197325 -0.153333 -0.04
-0.197325 0.153333 0.04
-0.197325 0.153333 -0.04
0.197325 0.153333 0.04
0.197325 0.153333 -0.04
-0.153333 0.197325 -0.04
-0.153333 0.197325 0.04
0.153333 0.197325 -0.04
0.153333 0.197325 0.04
-0.0333333 -0.247719 -0.04
-0.0333333 -0.247719 0.04
0.0333333 -0.247719 0.04
0.0333333 -0.247719 -0.04
-0.247719 -0.0333333 0.04
-0.247719 -0.0333333 -0.04
0.247719 -0.0333333 0.04
0.247719 -0.0333333 -0.04
-0.247719 0.0333333 0.04
-0.247719 0.0333333 -0.04
0.247719 0.0333333 0.04
0.247719 0.0333333 -0.04
-0.0333333 0.247719 -0.04
-0.0333333 0.247719 0.04
0.0333333 0.247719 0.04
0.0333333 0.247719 -0.04
-9.24888e-17 -0.249996 0.04
-9.24888e-17 -0.249996 -0.04
-0.249996 0 0.04
-0.249996 0 -0.04
0.249996 0 0.04
0.249996 0 -0.04
-9.24988e-17 0.249996 0.04
-9.24988e-17 0.249996 -0.04

POLYGONS 276 1380
4 576 352 353 577
4 368 369 576 577
4 128 129 369 368
4 96 97 129 128
4 320 321 97 96
4 592 593 321 320
4 322 323 593 592
4 98 99 323 322
4 130 131 99 98
4 370 371 131 130
4 578 579 371 370
4 354 355 579 578
4 544 464 465 545
4 448 449 544 545
4 160 161 449 448
4 64 65 161 160
4 288 289 65 64
4 66 67 290 291
4 162 163 67 66
4 450 451 163 162
4 546 547 451 450
4 466 467 547 546
4 224 304 305 225
4 0 1 224 225
4 240 241 1 0
4 465 464 241 240
4 242 467 466 243
4 2 3 242 243
4 226 227 3 2
4 306 307 227 226
4 432 208 209 433
4 512 513 432 433
4 305 304 513 512
4 514 307 306 515
4 434 435 514 515
4 210 211 435 434
4 112 256 257 113
4 144 145 112 113
4 209 208 145 144
4 146 211 210 147
4 114 115 146 147
4 258 259 115 114
4 528 384 385 529
4 400 401 528 529
4 257 256 401 400
4 402 259 258 403
4 530 531 402 403
4 386 387 531 530
4 192 32 33 193
4 385 384 192 193
4 194 387 386 195
4 34 35 194 195
4 336 496 497 337
4 48 49 336 337
4 338 339 50 51
4 498 499 339 338
4 560 272 273 561
4 497 496 560 561
4 562 499 498 563
4 274 275 562 563
4 176 16 17 177
4 273 272 176 177
4 178 275 274 179
4 18 19 178 179
4 80 416 417 81
4 17 16 80 81
4 82 19 18 83
4 418 419 82 83
4 480 481 482 483
4 484 485 486 487
4 420 84 85 421
4 86 87 422 423
4 20 180 181 21
4 85 84 20 21
4 22 87 86 23
4 182 183 22 23
4 276 564 565 277
4 181 180 276 277
4 278 183 182 279
4 566 567 278 279
4 340 500 501 341
4 501 500 565 564
4 502 567 566 503
4 342 343 502 503
4 52 340 341 53
4 54 55 343 342
4 196 36 37 197
4 198 199 38 39
4 532 388 389 533
4 389 388 196 197
4 390 199 198 391
4 534 535 390 391
4 404 532 533 405
4 406 407 535 534
4 116 260 261 117
4 261 260 404 405
4 262 407 406 263
4 118 119 262 263
4 148 116 117 149
4 150 151 119 118
4 436 212 213 437
4 213 212 148 149
4 214 151 150 215
4 438 439 214 215
4 516 436 437 517
4 518 519 439 438
4 228 308 309 229
4 309 308 516 517
4 310 519 518 311
4 230 231 310 311
4 4 228 229 5
4 6 7 231 230
4 244 4 5 245
4 246 247 7 6
4 548 468 469 549
4 469 468 244 245
4 470 247 246 471
4 550 551 470 471
4 452 548 549 453
4 454 455 551 550
4 164 452 453 165
4 166 167 455 454
4 68 164 165 69
4 70 71 167 166
4 292 68 69 293
4 294 295 71 70
4 580 356 357 581
4 582 583 358 359
4 372 580 581 373
4 374 375 583 582
4 132 372 373 133
4 134 135 375 374
4 100 132 133 101
4 102 103 135 134
4 324 100 101 325
4 326 327 103 102
4 594 324 325 595
4 596 597 327 326
4 328 594 595 329
4 330 331 597 596
4 104 328 329 105
4 106 107 331 330
4 136 104 105 137
4 138 139 107 106
4 376 136 137 377
4 378 379 139 138
4 584 376 377 585
4 586 587 379 378
4 360 361 584 585
4 362 587 586 363
4 72 296 297 73
4 74 75 298 299
4 168 72 73 169
4 170 171 75 74
4 456 168 169 457
4 458 459 171 170
4 552 456 457 553
4 554 555 459 458
4 472 473 552 553
4 248 473 472 249
4 250 251 474 475
4 474 555 554 475
4 8 248 249 9
4 10 11 251 250
4 232 8 9 233
4 234 235 11 10
4 312 313 232 233
4 520 313 312 521
4 522 523 314 315
4 314 235 234 315
4 440 520 521 441
4 442 443 523 522
4 216 217 440 441
4 152 217 216 153
4 154 155 218 219
4 218 443 442 219
4 120 152 153 121
4 122 123 155 154
4 264 265 120 121
4 408 265 264 409
4 410 411 266 267
4 266 123 122 267
4 536 408 409 537
4 538 539 411 410
4 392 393 536 537
4 200 393 392 201
4 202 203 394 395
4 394 539 538 395
4 40 41 200 201
4 42 203 202 43
4 344 56 57 345
4 346 347 58 59
4 504 505 344 345
4 568 505 504 569
4 570 571 506 507
4 506 347 346 507
4 280 281 568 569
4 184 281 280 185
4 282 283 186 187
4 570 283 282 571
4 24 25 184 185
4 88 25 24 89
4 26 27 90 91
4 186 27 26 187
4 424 425 88 89
4 90 426 427 91
4 488 489 490 491
4 492 493 494 495
4 92 93 428 429
4 28 93 92 29
4 94 95 30 31
4 430 95 94 431
4 188 189 28 29
4 284 189 188 285
4 190 191 286 287
4 30 191 190 31
4 572 573 284 285
4 508 573 572 509
4 574 575 510 511
4 286 575 574 287
4 348 349 508 509
4 60 349 348 61
4 350 62 63 351
4 510 350 351 511
4 204 205 44 45
4 396 205 204 397
4 206 207 398 399
4 46 207 206 47
4 540 541 396 397
4 412 541 540 413
4 268 412 413 269
4 414 415 270 271
4 542 415 414 543
4 398 542 543 399
4 124 125 268 269
4 156 125 124 157
4 220 156 157 221
4 158 159 222 223
4 126 159 158 127
4 270 126 127 271
4 444 445 220 221
4 524 445 444 525
4 316 524 525 317
4 526 527 318 319
4 446 527 526 447
4 222 446 447 223
4 236 237 316 317
4 12 237 236 13
4 252 12 13 253
4 476 252 253 477
4 254 255 478 479
4 14 255 254 15
4 238 14 15 239
4 318 238 239 319
4 556 557 476 477
4 460 557 556 461
4 172 460 461 173
4 76 172 173 77
4 300 76 77 301
4 78 302 303 79
4 174 78 79 175
4 462 174 175 463
4 558 462 463 559
4 478 558 559 479
4 588 589 364 365
4 380 589 588 381
4 140 380 381 141
4 108 140 141 109
4 332 108 109 333
4 598 332 333 599
4 334 598 599 335
4 110 334 335 111
4 142 110 111 143
4 382 142 143 383
4 590 382 383 591
4 366 590 591 367
CELL_DATA 276
FIELD attributes 1
k 1 276 double
0 0 0 0 0 0 0 0 0 0
0 0 0 0 0 0 0 0 0 0
0 0 0 0 0 0 0 0 0 0
0 0 0 0 0 0 0 0 0 0
0 0 0 0 0 0 0 0 0 0
0 0 0 0 0 0 0 0 0 0
0 0 0 0 0 0 0 0 0 0
0 0 0 0 0 0 0 0 0 0
0 0 0 0 0 0 0 0 0 0
0 0 0 0 0 0 0 0 0 0
0 0 0 0 0 0 0 0 0 0
0 0 0 0 0 0 0 0 0 0
0 0 0 0 0 0 0 0 0 0
0 0 0 0 0 0 0 0 0 0
0 0 0 0 0 0 0 0 0 0
0 0 0 0 0 0 0 0 0 0
0 0 0 0 0 0 0 0 0 0
0 0 0 0 0 0 0 0 0 0
0 0 0 0 0 0 0 0 0 0
0 0 0 0 0 0 0 0 0 0
0 0 0 0 0 0 0 0 0 0
0 0 0 0 0 0 0 0 0 0
0 0 0 0 0 0 0 0 0 0
0 0 0 0 0 0 0 0 0 0
0 0 0 0 0 0 0 0 0 0
0 0 0 0 0 0 0 0 0 0
0 0 0 0 0 0 0 0 0 0
0 0 0 0 0 0
