/*--------------------------------*- C++ -*----------------------------------*\
| =========                 |                                                 |
| \\      /  F ield         | foam-extend: Open Source CFD                    |
|  \\    /   O peration     | Version:     4.1                                |
|   \\  /    A nd           | Web:         http://www.foam-extend.org         |
|    \\/     M anipulation  |                                                 |
\*---------------------------------------------------------------------------*/
FoamFile
{
    version     2.0;
    format      ascii;
    class       volScalarField;
    location    "15";
    object      nut;
}
// * * * * * * * * * * * * * * * * * * * * * * * * * * * * * * * * * * * * * //

dimensions      [0 2 -1 0 0 0 0];

internalField   nonuniform List<scalar> 
67500
(
1.01203e-05
1.0122e-05
1.01345e-05
1.01624e-05
1.02122e-05
1.02899e-05
1.04021e-05
1.05546e-05
1.07549e-05
1.1012e-05
1.13358e-05
1.17377e-05
1.22311e-05
1.28316e-05
1.35582e-05
1.44333e-05
1.5485e-05
1.6747e-05
1.82613e-05
2.00805e-05
2.2271e-05
2.49182e-05
2.81337e-05
3.20647e-05
3.69111e-05
4.2949e-05
5.05709e-05
6.03546e-05
7.31834e-05
9.05155e-05
0.000114736
0.000150694
0.000211274
0.000304222
0.000411634
0.000522258
0.000625517
0.000716996
0.000795084
0.000871776
0.000955003
0.00104485
0.00113821
0.00123251
0.00132677
0.0014213
0.00151682
0.00161373
0.00171216
0.00181209
0.00191347
0.00201632
0.00212068
0.00222663
0.00233422
0.00244346
0.00255439
0.00266703
0.00278143
0.00289763
0.00301566
0.00313557
0.00325738
0.00338116
0.00350693
0.00363475
0.00376465
0.00389667
0.00403085
0.00416722
0.00430583
0.00444669
0.00458984
0.0047353
0.00488311
0.0050333
0.00518587
0.00534087
0.00549829
0.00565814
0.00582041
0.00598507
0.00615211
0.00632152
0.0064933
0.00666744
0.00684395
0.00702281
0.00720402
0.00738759
0.00757351
0.00776179
0.00795244
0.00814547
0.0083409
0.00853874
0.00873901
0.00894173
0.00914691
0.0093546
0.0095648
0.00977756
0.0099929
0.0102109
0.0104315
0.0106548
0.0108808
0.0111096
0.0113413
0.0115757
0.0118131
0.0120534
0.0122967
0.012543
0.0127923
0.0130446
0.0133
0.0135584
0.0138199
0.0140845
0.014352
0.0146225
0.0148959
0.0151721
0.015451
0.0157326
0.0160166
0.0163029
0.0165914
0.0168818
0.0171739
0.0174674
0.017762
0.0180576
0.0183536
0.0186499
0.0189462
0.019242
0.019537
0.0198308
0.0201231
0.0204136
0.0207018
0.0209873
0.0212698
0.0215489
0.0218242
0.0220953
0.0223618
0.0226234
0.0228797
0.0231303
0.0233749
0.0236131
0.0238447
0.0240693
0.0242865
0.0244963
0.0246982
0.024892
0.0250776
0.0252546
0.025423
0.0255826
0.0257332
0.0258747
0.026007
0.02613
0.0262438
0.0263481
0.0264432
0.0265288
0.0266053
0.0266726
0.026731
0.0267806
0.0268214
0.0268536
0.0268775
0.0268932
0.0269009
0.0269009
0.0268935
0.0268789
0.0268574
0.0268293
0.026795
0.0267548
0.026709
0.026658
0.0266021
0.0265416
0.0264771
0.0264088
0.0263371
0.0262624
0.0261851
0.0261055
0.0260241
0.0259412
0.0258572
0.0257724
0.0256873
0.0256021
0.0255171
0.0254328
0.0253495
0.0252673
0.0251868
0.025108
0.0250313
0.0249569
0.0248852
0.0248162
0.0247501
0.0246873
0.0246278
0.0245718
0.0245194
0.0244708
0.0244261
0.0243852
0.0243484
0.0243156
0.024287
0.0242625
0.0242421
0.0242258
0.0242137
0.0242056
0.0242016
0.0242016
0.0242056
0.0242135
0.0242252
0.0242406
0.0242597
0.0242824
0.0243086
0.0243382
0.0243711
0.0244072
0.0244465
0.0244888
0.0245341
0.0245823
0.0246333
0.024687
0.0247433
0.0248022
0.0248637
0.0249275
0.0249937
0.0250623
0.0251331
0.0252061
0.0252813
0.0253585
0.0254379
0.0255193
0.0256028
0.0256882
0.0257755
0.0258648
0.0259559
0.026049
0.0261438
0.0262405
0.0263391
0.0264394
0.0265416
0.0266458
0.0267517
0.0268594
0.0269688
0.02708
0.0271928
0.0273074
0.0274236
0.0275416
0.0276612
0.0277825
0.0279055
0.0280301
0.0281564
0.0282842
0.0284137
0.0285448
0.0286775
0.0288118
0.0289477
0.0290851
0.0292241
0.0293646
0.0295067
0.0296503
0.0297954
0.029942
0.0300901
0.0302397
0.0303907
0.0305432
0.0306971
0.0308524
0.0310092
0.0311674
0.0313269
0.0314878
0.0316501
0.0318138
0.0319788
0.0321451
0.0323127
0.0324816
0.0326518
0.0328233
0.0329961
0.0331701
0.0333453
0.0335217
0.0336994
0.0338782
0.0340583
0.0342395
0.0344218
0.0346053
0.0347899
0.0349756
0.0351625
0.0353504
0.0355393
0.0357294
0.0359204
0.0361125
0.0363057
0.0364998
0.0366949
0.0368909
0.037088
0.0372859
0.0374848
0.0376846
0.0378853
0.0380869
0.0382893
0.0384926
0.0386967
0.0389017
0.0391074
0.0393139
0.0395212
0.0397292
0.039938
0.0401475
0.0403576
0.0405685
0.04078
0.0409921
0.0412049
0.0414182
0.0416324
0.0418474
0.0420629
0.0422789
0.0424953
0.0427123
0.0429297
0.0431476
0.0433658
0.0435845
0.0438034
0.0440227
0.0442423
0.0444622
0.0446823
0.0449026
0.0451231
0.0453438
0.0455645
0.0457853
0.0460062
0.046227
0.0464478
0.0466685
0.0468892
0.0471096
0.0473298
0.0475498
0.0477695
0.0479888
0.0482077
0.0484262
0.0486441
0.0488615
0.0490782
0.0492943
0.0495096
0.0497241
0.0499376
0.0501503
0.0503619
0.0505724
0.0507817
0.0509897
0.0511964
0.0514017
0.0516054
0.0518075
0.0520079
0.0522065
0.0524031
0.0525977
0.0527902
0.0529805
0.0531683
0.0533537
0.0535365
0.0537166
0.0538937
0.0540679
0.0542389
0.0544067
0.054571
0.0547317
0.0548887
0.0550418
0.0551909
0.0553357
0.0554761
0.055612
0.0557432
0.0558694
0.0559906
0.0561065
0.056217
0.0563219
0.0564209
0.0565139
0.0566008
0.0566813
0.0567553
0.0568226
0.056883
0.0569363
0.0569825
0.0570213
0.0570525
0.0570762
0.057092
0.0571
1.01183e-05
1.01112e-05
1.01038e-05
1.00966e-05
1.00899e-05
1.00837e-05
1.00783e-05
1.00741e-05
1.00713e-05
1.00705e-05
1.0072e-05
1.00766e-05
1.00849e-05
1.00977e-05
1.01157e-05
1.01392e-05
1.01686e-05
1.02022e-05
1.02364e-05
1.02633e-05
1.02694e-05
1.02357e-05
1.01444e-05
9.99402e-06
9.82731e-06
9.7515e-06
9.9371e-06
1.06048e-05
1.20374e-05
1.46386e-05
1.91449e-05
2.69454e-05
4.08483e-05
6.7141e-05
0.000110514
0.000171562
0.000247321
0.000334349
0.000430394
0.000534191
0.000643289
0.00075381
0.000862471
0.000968293
0.00107217
0.00117573
0.00127995
0.00138506
0.00149089
0.00159737
0.0017046
0.00181274
0.00192196
0.00203241
0.00214413
0.00225718
0.0023716
0.00248745
0.00260482
0.00272375
0.00284431
0.00296654
0.00309048
0.00321621
0.00334378
0.00347323
0.00360463
0.003738
0.0038734
0.00401088
0.00415046
0.00429219
0.00443611
0.00458223
0.00473061
0.00488126
0.00503421
0.0051895
0.00534714
0.00550714
0.00566948
0.00583414
0.00600109
0.00617034
0.00634189
0.00651573
0.00669185
0.00687026
0.00705096
0.00723395
0.00741923
0.00760681
0.00779669
0.0079889
0.00818344
0.00838035
0.00857963
0.0087813
0.0089854
0.00919194
0.00940096
0.00961249
0.00982656
0.0100432
0.0102625
0.0104844
0.0107091
0.0109364
0.0111666
0.0113997
0.0116356
0.0118744
0.0121162
0.012361
0.0126089
0.0128598
0.0131138
0.0133709
0.013631
0.0138943
0.0141606
0.01443
0.0147024
0.0149777
0.0152558
0.0155366
0.01582
0.0161059
0.0163941
0.0166843
0.0169764
0.01727
0.017565
0.017861
0.0181578
0.0184549
0.0187522
0.0190492
0.0193456
0.019641
0.0199352
0.0202276
0.0205179
0.0208058
0.0210908
0.0213726
0.0216507
0.0219248
0.0221945
0.0224594
0.0227191
0.0229733
0.0232215
0.0234635
0.0236989
0.0239274
0.0241486
0.0243623
0.0245683
0.0247661
0.0249557
0.0251368
0.0253092
0.0254727
0.0256273
0.0257726
0.0259087
0.0260355
0.0261529
0.0262609
0.0263594
0.0264485
0.0265282
0.0265988
0.0266603
0.0267128
0.0267564
0.0267914
0.0268178
0.026836
0.0268461
0.0268483
0.026843
0.0268304
0.0268108
0.0267845
0.0267519
0.0267132
0.0266689
0.0266193
0.0265647
0.0265055
0.026442
0.0263748
0.0263041
0.0262304
0.0261539
0.0260752
0.0259945
0.0259123
0.025829
0.0257448
0.0256602
0.0255755
0.0254911
0.0254073
0.0253243
0.0252426
0.0251624
0.025084
0.0250076
0.0249335
0.024862
0.0247933
0.0247275
0.0246649
0.0246056
0.0245498
0.0244976
0.0244491
0.0244045
0.0243638
0.0243271
0.0242945
0.0242659
0.0242415
0.0242212
0.024205
0.0241929
0.0241849
0.024181
0.024181
0.024185
0.0241929
0.0242046
0.0242201
0.0242392
0.0242619
0.0242881
0.0243176
0.0243506
0.0243867
0.024426
0.0244683
0.0245136
0.0245617
0.0246127
0.0246663
0.0247227
0.0247815
0.0248429
0.0249067
0.0249729
0.0250414
0.0251122
0.0251852
0.0252603
0.0253376
0.0254169
0.0254983
0.0255817
0.0256671
0.0257544
0.0258436
0.0259348
0.0260278
0.0261226
0.0262193
0.0263178
0.0264181
0.0265203
0.0266244
0.0267303
0.0268379
0.0269473
0.0270584
0.0271712
0.0272858
0.027402
0.0275199
0.0276395
0.0277608
0.0278837
0.0280082
0.0281344
0.0282623
0.0283917
0.0285228
0.0286554
0.0287897
0.0289255
0.0290629
0.0292018
0.0293423
0.0294843
0.0296278
0.0297728
0.0299194
0.0300674
0.0302169
0.0303679
0.0305203
0.0306741
0.0308294
0.0309861
0.0311442
0.0313037
0.0314646
0.0316268
0.0317904
0.0319553
0.0321215
0.0322891
0.0324579
0.032628
0.0327994
0.0329721
0.033146
0.0333212
0.0334975
0.0336751
0.0338539
0.0340338
0.0342149
0.0343972
0.0345806
0.0347652
0.0349508
0.0351375
0.0353254
0.0355143
0.0357042
0.0358952
0.0360872
0.0362803
0.0364743
0.0366693
0.0368653
0.0370622
0.0372601
0.0374589
0.0376586
0.0378593
0.0380608
0.0382631
0.0384663
0.0386704
0.0388752
0.0390809
0.0392873
0.0394945
0.0397025
0.0399112
0.0401206
0.0403307
0.0405415
0.0407529
0.0409649
0.0411776
0.0413909
0.041605
0.0418199
0.0420353
0.0422512
0.0424677
0.0426846
0.0429019
0.0431197
0.0433379
0.0435565
0.0437754
0.0439946
0.0442142
0.044434
0.0446541
0.0448743
0.0450948
0.0453153
0.045536
0.0457568
0.0459776
0.0461984
0.0464192
0.0466399
0.0468605
0.0470809
0.0473011
0.047521
0.0477407
0.04796
0.0481789
0.0483973
0.0486152
0.0488326
0.0490493
0.0492654
0.0494807
0.0496952
0.0499088
0.0501214
0.050333
0.0505436
0.0507529
0.050961
0.0511677
0.051373
0.0515767
0.0517789
0.0519793
0.0521779
0.0523747
0.0525693
0.0527619
0.0529522
0.0531402
0.0533256
0.0535085
0.0536886
0.0538659
0.0540402
0.0542113
0.0543792
0.0545436
0.0547045
0.0548616
0.0550148
0.055164
0.055309
0.0554496
0.0555856
0.0557169
0.0558433
0.0559646
0.0560807
0.0561913
0.0562963
0.0563955
0.0564887
0.0565758
0.0566564
0.0567305
0.056798
0.0568585
0.0569119
0.0569582
0.056997
0.0570284
0.057052
0.0570679
0.0570759
1.01174e-05
1.01098e-05
1.01022e-05
1.00947e-05
1.00873e-05
1.00799e-05
1.00726e-05
1.00654e-05
1.00582e-05
1.00512e-05
1.00443e-05
1.00377e-05
1.00312e-05
1.00251e-05
1.00194e-05
1.00143e-05
1.00098e-05
1.00062e-05
1.00037e-05
1.00021e-05
1.0001e-05
9.99845e-06
9.98898e-06
9.95908e-06
9.87909e-06
9.68668e-06
9.27334e-06
8.51857e-06
7.44379e-06
6.37888e-06
5.8241e-06
6.21671e-06
8.04905e-06
1.27296e-05
2.22936e-05
3.86434e-05
6.27972e-05
9.54564e-05
0.000137699
0.000191584
0.000259087
0.000340357
0.000434805
0.000540541
0.00065417
0.000771596
0.000889415
0.00100576
0.00112044
0.00123427
0.00134822
0.00146286
0.00157836
0.00169473
0.00181196
0.0019301
0.00204924
0.00216949
0.00229096
0.00241371
0.00253782
0.00266333
0.00279029
0.0029188
0.00304892
0.00318071
0.00331422
0.00344952
0.00358664
0.00372564
0.00386658
0.0040095
0.00415443
0.00430142
0.00445049
0.0046017
0.00475507
0.00491064
0.00506842
0.00522843
0.00539066
0.0055551
0.0057217
0.00589047
0.00606139
0.00623448
0.00640973
0.00658714
0.00676673
0.00694849
0.00713242
0.00731855
0.00750688
0.00769742
0.00789021
0.00808525
0.00828258
0.00848221
0.00868418
0.00888851
0.00909524
0.00930439
0.00951602
0.00973016
0.00994686
0.0101662
0.0103881
0.0106128
0.0108403
0.0110705
0.0113036
0.0115397
0.0117787
0.0120207
0.0122658
0.012514
0.0127654
0.0130199
0.0132776
0.0135384
0.0138025
0.0140697
0.0143401
0.0146135
0.01489
0.0151694
0.0154517
0.0157366
0.0160241
0.0163139
0.0166058
0.0168997
0.0171952
0.017492
0.0177899
0.0180885
0.0183875
0.0186867
0.0189856
0.0192838
0.0195811
0.0198771
0.0201713
0.0204634
0.020753
0.0210397
0.0213231
0.0216027
0.0218782
0.0221491
0.0224152
0.0226759
0.0229309
0.0231798
0.0234223
0.0236581
0.0238867
0.0241078
0.0243213
0.0245267
0.0247239
0.0249126
0.0250925
0.0252635
0.0254255
0.0255781
0.0257215
0.0258553
0.0259796
0.0260944
0.0261995
0.026295
0.0263811
0.0264577
0.026525
0.026583
0.026632
0.0266721
0.0267035
0.0267263
0.0267409
0.0267473
0.026746
0.0267372
0.0267212
0.0266983
0.0266689
0.0266333
0.0265918
0.0265447
0.0264926
0.0264357
0.0263745
0.0263093
0.0262405
0.0261685
0.0260937
0.0260165
0.0259373
0.0258564
0.0257743
0.0256913
0.0256078
0.0255241
0.0254406
0.0253576
0.0252755
0.0251945
0.025115
0.0250372
0.0249614
0.0248879
0.0248169
0.0247486
0.0246833
0.0246211
0.0245622
0.0245067
0.0244548
0.0244067
0.0243623
0.0243219
0.0242854
0.0242529
0.0242245
0.0242003
0.0241801
0.024164
0.024152
0.0241441
0.0241403
0.0241404
0.0241444
0.0241524
0.0241641
0.0241796
0.0241987
0.0242214
0.0242476
0.0242771
0.02431
0.0243461
0.0243854
0.0244276
0.0244729
0.024521
0.0245719
0.0246255
0.0246818
0.0247406
0.0248019
0.0248657
0.0249318
0.0250002
0.0250709
0.0251439
0.0252189
0.0252961
0.0253754
0.0254567
0.0255401
0.0256254
0.0257126
0.0258018
0.0258928
0.0259858
0.0260806
0.0261772
0.0262756
0.0263758
0.026478
0.026582
0.0266878
0.0267954
0.0269047
0.0270157
0.0271285
0.0272429
0.027359
0.0274769
0.0275964
0.0277176
0.0278404
0.0279649
0.028091
0.0282187
0.028348
0.028479
0.0286116
0.0287457
0.0288814
0.0290187
0.0291575
0.0292979
0.0294398
0.0295832
0.0297281
0.0298745
0.0300224
0.0301718
0.0303226
0.0304749
0.0306286
0.0307838
0.0309404
0.0310983
0.0312577
0.0314184
0.0315805
0.0317439
0.0319087
0.0320748
0.0322422
0.0324109
0.0325809
0.0327521
0.0329246
0.0330984
0.0332734
0.0334496
0.033627
0.0338056
0.0339854
0.0341664
0.0343485
0.0345317
0.0347161
0.0349016
0.0350882
0.0352759
0.0354646
0.0356544
0.0358452
0.0360371
0.03623
0.0364238
0.0366187
0.0368145
0.0370113
0.037209
0.0374077
0.0376073
0.0378077
0.0380091
0.0382113
0.0384143
0.0386182
0.0388229
0.0390284
0.0392347
0.0394418
0.0396496
0.0398581
0.0400674
0.0402773
0.040488
0.0406993
0.0409112
0.0411237
0.0413369
0.0415509
0.0417656
0.0419809
0.0421967
0.0424129
0.0426297
0.042847
0.0430646
0.0432827
0.0435011
0.0437199
0.0439391
0.0441585
0.0443782
0.0445982
0.0448183
0.0450387
0.0452592
0.0454798
0.0457005
0.0459212
0.0461419
0.0463626
0.0465832
0.0468037
0.0470241
0.0472442
0.0474641
0.0476837
0.047903
0.0481219
0.0483403
0.0485582
0.0487755
0.0489923
0.0492083
0.0494236
0.0496381
0.0498517
0.0500644
0.050276
0.0504866
0.0506959
0.0509041
0.0511109
0.0513162
0.0515201
0.0517223
0.0519228
0.0521215
0.0523184
0.0525132
0.0527059
0.0528963
0.0530844
0.05327
0.0534531
0.0536334
0.0538109
0.0539853
0.0541567
0.0543247
0.0544894
0.0546505
0.0548078
0.0549613
0.0551108
0.055256
0.0553969
0.0555332
0.0556648
0.0557915
0.0559131
0.0560295
0.0561404
0.0562457
0.0563452
0.0564387
0.056526
0.0566069
0.0566813
0.056749
0.0568097
0.0568634
0.0569098
0.0569488
0.0569803
0.0570041
0.05702
0.0570281
1.01173e-05
1.01097e-05
1.0102e-05
1.00945e-05
1.0087e-05
1.00795e-05
1.00722e-05
1.00649e-05
1.00577e-05
1.00506e-05
1.00436e-05
1.00366e-05
1.00298e-05
1.0023e-05
1.00164e-05
1.001e-05
1.00037e-05
9.99757e-06
9.99175e-06
9.98627e-06
9.9812e-06
9.97664e-06
9.97256e-06
9.96862e-06
9.96337e-06
9.95216e-06
9.92113e-06
9.83065e-06
9.57523e-06
8.92174e-06
7.5736e-06
5.69992e-06
4.19941e-06
3.88221e-06
5.07593e-06
8.12237e-06
1.3516e-05
2.18563e-05
3.38593e-05
5.0609e-05
7.35514e-05
0.000104298
0.000144531
0.000196289
0.000261507
0.00034032
0.000432384
0.000536043
0.000648762
0.000767379
0.000888898
0.00101114
0.00113306
0.00125462
0.00137626
0.0014985
0.00162162
0.00174575
0.00187092
0.00199717
0.00212455
0.0022531
0.00238291
0.00251404
0.00264658
0.0027806
0.00291613
0.00305324
0.00319198
0.0033324
0.00347457
0.00361853
0.00376432
0.00391199
0.00406158
0.00421313
0.00436666
0.00452223
0.00467986
0.00483956
0.00500133
0.00516518
0.00533108
0.00549896
0.00566882
0.00584067
0.00601452
0.00619037
0.00636823
0.00654812
0.00673004
0.006914
0.00710003
0.00728813
0.00747835
0.00767069
0.00786519
0.00806188
0.0082608
0.00846196
0.00866541
0.0088712
0.00907935
0.00928993
0.00950299
0.00971859
0.00993677
0.0101576
0.0103812
0.0106075
0.0108367
0.0110688
0.0113039
0.011542
0.0117832
0.0120276
0.0122751
0.012526
0.0127801
0.0130376
0.0132983
0.0135625
0.01383
0.0141007
0.0143748
0.0146521
0.0149325
0.0152159
0.0155023
0.0157913
0.0160829
0.0163769
0.0166729
0.0169706
0.0172699
0.0175703
0.0178716
0.0181735
0.0184756
0.0187777
0.0190792
0.0193799
0.0196794
0.0199772
0.020273
0.0205663
0.0208568
0.021144
0.0214275
0.0217068
0.0219816
0.0222514
0.0225159
0.0227745
0.0230269
0.0232728
0.0235118
0.0237435
0.0239676
0.0241837
0.0243916
0.024591
0.0247817
0.0249634
0.0251359
0.025299
0.0254526
0.0255966
0.0257309
0.0258553
0.0259699
0.0260747
0.0261697
0.026255
0.0263306
0.0263968
0.0264535
0.026501
0.0265394
0.026569
0.02659
0.0266026
0.0266071
0.0266038
0.026593
0.026575
0.0265501
0.0265188
0.0264814
0.0264382
0.0263896
0.026336
0.0262779
0.0262156
0.0261495
0.02608
0.0260076
0.0259325
0.0258553
0.0257763
0.025696
0.0256146
0.0255325
0.0254502
0.025368
0.0252862
0.0252052
0.0251252
0.0250467
0.0249698
0.0248948
0.024822
0.0247517
0.0246841
0.0246193
0.0245576
0.0244992
0.0244442
0.0243927
0.0243449
0.0243009
0.0242608
0.0242246
0.0241924
0.0241642
0.0241401
0.0241201
0.0241042
0.0240923
0.0240845
0.0240807
0.0240809
0.024085
0.0240929
0.0241047
0.0241202
0.0241393
0.0241619
0.0241881
0.0242176
0.0242504
0.0242865
0.0243256
0.0243678
0.024413
0.024461
0.0245118
0.0245654
0.0246215
0.0246802
0.0247414
0.0248051
0.0248711
0.0249395
0.02501
0.0250829
0.0251578
0.0252349
0.0253141
0.0253953
0.0254785
0.0255637
0.0256508
0.0257399
0.0258308
0.0259237
0.0260183
0.0261148
0.0262131
0.0263133
0.0264153
0.0265192
0.0266249
0.0267323
0.0268415
0.0269524
0.027065
0.0271793
0.0272954
0.027413
0.0275324
0.0276534
0.0277761
0.0279005
0.0280264
0.028154
0.0282832
0.028414
0.0285464
0.0286804
0.0288159
0.028953
0.0290917
0.0292319
0.0293736
0.0295168
0.0296616
0.0298078
0.0299555
0.0301047
0.0302554
0.0304075
0.030561
0.0307159
0.0308723
0.03103
0.0311892
0.0313497
0.0315116
0.0316748
0.0318394
0.0320052
0.0321724
0.0323409
0.0325107
0.0326817
0.032854
0.0330275
0.0332023
0.0333783
0.0335555
0.0337339
0.0339134
0.0340942
0.034276
0.0344591
0.0346432
0.0348285
0.0350148
0.0352022
0.0353907
0.0355803
0.0357709
0.0359625
0.0361552
0.0363488
0.0365435
0.0367391
0.0369356
0.0371331
0.0373315
0.0375309
0.0377311
0.0379322
0.0381342
0.038337
0.0385407
0.0387452
0.0389505
0.0391566
0.0393634
0.039571
0.0397793
0.0399884
0.0401981
0.0404085
0.0406196
0.0408313
0.0410437
0.0412566
0.0414704
0.0416849
0.0419
0.0421156
0.0423317
0.0425483
0.0427653
0.0429828
0.0432007
0.043419
0.0436376
0.0438566
0.0440759
0.0442954
0.0445152
0.0447352
0.0449554
0.0451758
0.0453963
0.0456168
0.0458374
0.046058
0.0462786
0.0464991
0.0467196
0.0469398
0.0471599
0.0473797
0.0475992
0.0478184
0.0480372
0.0482556
0.0484735
0.0486908
0.0489075
0.0491236
0.0493389
0.0495534
0.049767
0.0499797
0.0501914
0.050402
0.0506114
0.0508196
0.0510265
0.0512319
0.0514359
0.0516382
0.0518389
0.0520378
0.0522348
0.0524297
0.0526226
0.0528133
0.0530016
0.0531874
0.0533707
0.0535513
0.053729
0.0539038
0.0540754
0.0542438
0.0544088
0.0545702
0.0547279
0.0548818
0.0550316
0.0551772
0.0553185
0.0554552
0.0555872
0.0557144
0.0558364
0.0559532
0.0560645
0.0561703
0.0562702
0.0563641
0.0564518
0.0565332
0.0566079
0.0566759
0.056737
0.056791
0.0568377
0.056877
0.0569087
0.0569326
0.0569487
0.0569567
1.01173e-05
1.01096e-05
1.0102e-05
1.00944e-05
1.00869e-05
1.00795e-05
1.00721e-05
1.00648e-05
1.00576e-05
1.00504e-05
1.00434e-05
1.00364e-05
1.00295e-05
1.00226e-05
1.00159e-05
1.00093e-05
1.00029e-05
9.99655e-06
9.99043e-06
9.98455e-06
9.97895e-06
9.97371e-06
9.96892e-06
9.96469e-06
9.96112e-06
9.9582e-06
9.9554e-06
9.95026e-06
9.93373e-06
9.87444e-06
9.67024e-06
9.03532e-06
7.47632e-06
5.2058e-06
3.6505e-06
3.27649e-06
3.87012e-06
5.37598e-06
7.95135e-06
1.19218e-05
1.77662e-05
2.61292e-05
3.78306e-05
5.39833e-05
7.60189e-05
0.000105496
0.000144075
0.000193402
0.000255183
0.000330153
0.000418085
0.000517965
0.000627872
0.000745356
0.000867787
0.00099296
0.00111935
0.00124624
0.0013736
0.00150168
0.00163077
0.00176099
0.0018924
0.00202505
0.00215898
0.00229426
0.00243094
0.00256904
0.00270862
0.00284974
0.00299244
0.00313678
0.00328281
0.00343055
0.00358005
0.00373135
0.00388447
0.00403947
0.00419637
0.00435519
0.00451596
0.00467865
0.00484328
0.00500978
0.00517805
0.0053481
0.00551996
0.00569364
0.00586916
0.00604651
0.00622573
0.00640683
0.00658982
0.00677474
0.00696161
0.00715046
0.00734134
0.00753426
0.00772928
0.00792641
0.00812571
0.00832723
0.00853101
0.0087371
0.00894558
0.00915651
0.00936995
0.00958598
0.00980468
0.0100261
0.0102504
0.0104775
0.0107077
0.0109408
0.0111772
0.0114167
0.0116595
0.0119057
0.0121553
0.0124084
0.012665
0.0129252
0.0131889
0.0134563
0.0137272
0.0140016
0.0142796
0.014561
0.0148457
0.0151336
0.0154245
0.0157182
0.0160146
0.0163133
0.0166139
0.0169164
0.0172202
0.0175253
0.0178312
0.0181375
0.0184441
0.0187504
0.0190561
0.0193608
0.019664
0.0199655
0.0202646
0.020561
0.0208543
0.0211439
0.0214295
0.0217106
0.0219867
0.0222574
0.0225223
0.0227809
0.0230328
0.0232777
0.0235152
0.0237448
0.0239663
0.0241793
0.0243836
0.0245789
0.0247648
0.0249413
0.0251081
0.0252651
0.0254121
0.0255491
0.0256759
0.0257926
0.0258991
0.0259956
0.026082
0.0261586
0.0262253
0.0262824
0.02633
0.0263684
0.0263977
0.0264182
0.0264302
0.026434
0.0264299
0.0264182
0.0263994
0.0263736
0.0263414
0.0263032
0.0262592
0.0262099
0.0261558
0.0260972
0.0260345
0.0259682
0.0258988
0.0258265
0.0257518
0.0256752
0.025597
0.0255176
0.0254374
0.0253568
0.0252762
0.0251959
0.0251162
0.0250374
0.02496
0.0248841
0.0248101
0.0247382
0.0246687
0.0246018
0.0245377
0.0244767
0.0244188
0.0243643
0.0243133
0.0242659
0.0242222
0.0241824
0.0241465
0.0241145
0.0240866
0.0240627
0.0240428
0.024027
0.0240153
0.0240075
0.0240038
0.024004
0.0240081
0.0240161
0.0240278
0.0240432
0.0240623
0.0240849
0.0241109
0.0241404
0.0241731
0.024209
0.0242481
0.0242901
0.0243351
0.024383
0.0244337
0.024487
0.024543
0.0246016
0.0246626
0.0247261
0.024792
0.0248602
0.0249306
0.0250032
0.025078
0.0251549
0.0252339
0.025315
0.025398
0.025483
0.02557
0.0256589
0.0257497
0.0258423
0.0259368
0.0260331
0.0261313
0.0262312
0.0263331
0.0264368
0.0265423
0.0266496
0.0267586
0.0268693
0.0269817
0.0270958
0.0272116
0.0273291
0.0274483
0.0275691
0.0276916
0.0278157
0.0279415
0.0280688
0.0281978
0.0283284
0.0284606
0.0285943
0.0287296
0.0288665
0.0290049
0.0291449
0.0292864
0.0294293
0.0295738
0.0297198
0.0298673
0.0300162
0.0301666
0.0303184
0.0304717
0.0306263
0.0307824
0.0309399
0.0310988
0.031259
0.0314206
0.0315835
0.0317478
0.0319134
0.0320803
0.0322485
0.0324179
0.0325887
0.0327607
0.0329339
0.0331084
0.0332841
0.0334609
0.033639
0.0338183
0.0339987
0.0341803
0.034363
0.0345468
0.0347318
0.0349178
0.0351049
0.0352931
0.0354824
0.0356727
0.035864
0.0360563
0.0362497
0.036444
0.0366393
0.0368356
0.0370327
0.0372309
0.0374299
0.0376298
0.0378307
0.0380324
0.0382349
0.0384383
0.0386425
0.0388475
0.0390533
0.0392598
0.0394671
0.0396752
0.0398839
0.0400934
0.0403035
0.0405143
0.0407258
0.0409379
0.0411505
0.041364
0.0415783
0.0417931
0.0420085
0.0422243
0.0424407
0.0426575
0.0428747
0.0430924
0.0433104
0.0435289
0.0437476
0.0439667
0.044186
0.0444057
0.0446255
0.0448455
0.0450657
0.045286
0.0455064
0.0457268
0.0459473
0.0461677
0.0463881
0.0466084
0.0468286
0.0470485
0.0472682
0.0474877
0.0477068
0.0479255
0.0481438
0.0483617
0.048579
0.0487956
0.0490117
0.049227
0.0494415
0.0496551
0.0498679
0.0500796
0.0502903
0.0504998
0.0507081
0.050915
0.0511206
0.0513247
0.0515272
0.0517281
0.0519271
0.0521243
0.0523195
0.0525126
0.0527036
0.0528922
0.0530783
0.0532619
0.0534428
0.0536209
0.053796
0.0539681
0.0541368
0.0543022
0.0544641
0.0546223
0.0547766
0.0549269
0.055073
0.0552148
0.0553521
0.0554846
0.0556123
0.0557349
0.0558522
0.0559641
0.0560704
0.0561709
0.0562653
0.0563536
0.0564354
0.0565107
0.0565792
0.0566407
0.0566951
0.0567422
0.0567818
0.0568137
0.0568379
0.0568541
0.0568623
1.01173e-05
1.01096e-05
1.0102e-05
1.00944e-05
1.00869e-05
1.00795e-05
1.00721e-05
1.00649e-05
1.00576e-05
1.00505e-05
1.00434e-05
1.00365e-05
1.00296e-05
1.00228e-05
1.00161e-05
1.00095e-05
1.00031e-05
9.99679e-06
9.99067e-06
9.98477e-06
9.97911e-06
9.97377e-06
9.9688e-06
9.9643e-06
9.9604e-06
9.95722e-06
9.95493e-06
9.95358e-06
9.95283e-06
9.95053e-06
9.9376e-06
9.87902e-06
9.64963e-06
8.91285e-06
7.33819e-06
5.39709e-06
3.99721e-06
3.37641e-06
3.385e-06
3.923e-06
5.0161e-06
6.7986e-06
9.49305e-06
1.34267e-05
1.90626e-05
2.70131e-05
3.80548e-05
5.31816e-05
7.36751e-05
0.000101022
0.000136774
0.000182494
0.000239624
0.000309425
0.000391863
0.000486476
0.000591936
0.000706291
0.000827331
0.000952901
0.00108132
0.00121143
0.00134265
0.00147489
0.00160827
0.00174298
0.00187911
0.00201666
0.00215563
0.00229607
0.00243801
0.0025815
0.00272658
0.00287328
0.00302162
0.00317164
0.00332336
0.00347683
0.00363208
0.00378913
0.00394799
0.00410868
0.0042712
0.00443555
0.00460155
0.00476912
0.00493828
0.00510906
0.00528149
0.00545557
0.00563133
0.00580879
0.00598797
0.00616891
0.00635165
0.00653622
0.00672266
0.00691101
0.0071013
0.00729359
0.00748791
0.00768431
0.00788286
0.00808362
0.00828666
0.00849205
0.00869988
0.00891023
0.00912318
0.00933883
0.00955726
0.00977857
0.0100029
0.0102302
0.0104608
0.0106946
0.0109318
0.0111725
0.0114167
0.0116646
0.0119162
0.0121716
0.0124308
0.0126939
0.0129609
0.0132319
0.0135067
0.0137854
0.0140679
0.0143542
0.014644
0.0149373
0.0152337
0.0155332
0.0158353
0.0161397
0.0164462
0.0167546
0.0170645
0.0173757
0.0176877
0.0180002
0.0183129
0.0186253
0.018937
0.0192476
0.0195566
0.0198637
0.0201682
0.0204697
0.0207678
0.021062
0.0213517
0.0216365
0.0219159
0.0221895
0.0224567
0.0227172
0.0229705
0.0232162
0.0234538
0.0236831
0.0239036
0.0241151
0.0243173
0.0245098
0.0246925
0.0248652
0.0250276
0.0251797
0.0253213
0.0254524
0.025573
0.0256831
0.0257827
0.0258719
0.0259509
0.0260197
0.0260785
0.0261276
0.0261672
0.0261974
0.0262187
0.0262312
0.0262353
0.0262314
0.0262199
0.026201
0.0261752
0.0261429
0.0261046
0.0260605
0.0260112
0.0259571
0.0258987
0.0258363
0.0257704
0.0257014
0.0256298
0.025556
0.0254804
0.0254034
0.0253254
0.0252468
0.025168
0.0250893
0.0250111
0.0249338
0.0248576
0.0247829
0.02471
0.0246391
0.0245704
0.0245043
0.0244409
0.0243805
0.0243232
0.0242692
0.0242186
0.0241717
0.0241284
0.0240888
0.0240532
0.0240214
0.0239937
0.0239699
0.0239502
0.0239344
0.0239227
0.023915
0.0239113
0.0239115
0.0239155
0.0239234
0.023935
0.0239503
0.0239693
0.0239917
0.0240176
0.0240469
0.0240795
0.0241152
0.0241541
0.0241959
0.0242407
0.0242884
0.0243388
0.0243919
0.0244477
0.024506
0.0245668
0.0246301
0.0246957
0.0247636
0.0248338
0.0249062
0.0249807
0.0250574
0.0251361
0.0252169
0.0252997
0.0253845
0.0254712
0.0255599
0.0256504
0.0257428
0.0258371
0.0259331
0.026031
0.0261307
0.0262323
0.0263358
0.026441
0.026548
0.0266568
0.0267672
0.0268794
0.0269932
0.0271088
0.027226
0.0273449
0.0274654
0.0275876
0.0277115
0.0278369
0.027964
0.0280927
0.028223
0.0283548
0.0284883
0.0286233
0.0287598
0.0288979
0.0290375
0.0291787
0.0293214
0.0294655
0.0296112
0.0297583
0.0299069
0.0300569
0.0302084
0.0303613
0.0305156
0.0306713
0.0308285
0.030987
0.0311468
0.031308
0.0314706
0.0316345
0.0317997
0.0319662
0.0321341
0.0323031
0.0324735
0.0326451
0.032818
0.0329921
0.0331674
0.0333439
0.0335216
0.0337004
0.0338805
0.0340617
0.034244
0.0344274
0.034612
0.0347976
0.0349844
0.0351722
0.0353611
0.035551
0.0357419
0.0359339
0.0361268
0.0363208
0.0365157
0.0367116
0.0369084
0.0371061
0.0373048
0.0375044
0.0377048
0.0379061
0.0381083
0.0383113
0.0385152
0.0387198
0.0389252
0.0391315
0.0393384
0.0395461
0.0397545
0.0399637
0.0401735
0.0403839
0.0405951
0.0408068
0.0410192
0.0412323
0.0414463
0.0416608
0.0418758
0.0420914
0.0423074
0.0425239
0.0427409
0.0429583
0.043176
0.0433942
0.0436127
0.0438315
0.0440506
0.04427
0.0444896
0.0447093
0.0449293
0.0451494
0.0453696
0.0455899
0.0458101
0.0460304
0.0462506
0.0464708
0.0466908
0.0469106
0.0471302
0.0473495
0.0475686
0.0477872
0.0480054
0.0482232
0.0484404
0.0486571
0.0488731
0.0490884
0.0493029
0.0495166
0.0497294
0.0499412
0.0501519
0.0503615
0.0505699
0.050777
0.0509828
0.051187
0.0513897
0.0515908
0.0517901
0.0519875
0.052183
0.0523764
0.0525676
0.0527566
0.0529431
0.0531271
0.0533084
0.0534869
0.0536625
0.053835
0.0540042
0.0541701
0.0543325
0.0544913
0.0546462
0.0547971
0.0549438
0.0550862
0.0552241
0.0553573
0.0554856
0.0556089
0.0557269
0.0558395
0.0559464
0.0560475
0.0561427
0.0562315
0.056314
0.0563899
0.056459
0.0565211
0.056576
0.0566235
0.0566635
0.0566958
0.0567202
0.0567366
0.0567449
1.01173e-05
1.01096e-05
1.0102e-05
1.00944e-05
1.0087e-05
1.00795e-05
1.00722e-05
1.00649e-05
1.00577e-05
1.00505e-05
1.00435e-05
1.00365e-05
1.00296e-05
1.00228e-05
1.00161e-05
1.00095e-05
1.0003e-05
9.99664e-06
9.99046e-06
9.98448e-06
9.97873e-06
9.97326e-06
9.96812e-06
9.96339e-06
9.95917e-06
9.95556e-06
9.9527e-06
9.95075e-06
9.94985e-06
9.95002e-06
9.95073e-06
9.94913e-06
9.9331e-06
9.85798e-06
9.60261e-06
8.96041e-06
7.81153e-06
6.37305e-06
5.06992e-06
4.16311e-06
3.68955e-06
3.6035e-06
3.87802e-06
4.53465e-06
5.64994e-06
7.36138e-06
9.87674e-06
1.34857e-05
1.85867e-05
2.57244e-05
3.55987e-05
4.90741e-05
6.72375e-05
9.14548e-05
0.000123199
0.000163974
0.000215209
0.00027813
0.000353509
0.000441079
0.00054014
0.000649283
0.000766644
0.000890237
0.00101822
0.00114922
0.00128232
0.00141703
0.00155318
0.00169078
0.00182993
0.00197069
0.00211307
0.00225707
0.00240267
0.00254989
0.00269874
0.00284928
0.00300153
0.00315551
0.00331122
0.00346868
0.00362788
0.00378885
0.00395161
0.00411579
0.00428135
0.00444833
0.00461675
0.00478665
0.00495804
0.00513095
0.00530542
0.00548148
0.00565919
0.00583858
0.0060197
0.00620259
0.0063873
0.00657386
0.00676234
0.00695277
0.00714524
0.0073398
0.00753655
0.00773556
0.00793693
0.00814075
0.00834712
0.00855614
0.00876791
0.00898255
0.00920016
0.00942088
0.00964482
0.0098721
0.0101028
0.0103372
0.0105752
0.0108171
0.0110629
0.0113127
0.0115667
0.0118248
0.0120872
0.012354
0.0126251
0.0129005
0.0131803
0.0134643
0.0137526
0.0140449
0.0143412
0.0146412
0.0149445