/*--------------------------------*- C++ -*----------------------------------*\
| =========                 |                                                 |
| \\      /  F ield         | foam-extend: Open Source CFD                    |
|  \\    /   O peration     | Version:     4.1                                |
|   \\  /    A nd           | Web:         http://www.foam-extend.org         |
|    \\/     M anipulation  |                                                 |
\*---------------------------------------------------------------------------*/
FoamFile
{
    version     2.0;
    format      ascii;
    class       volScalarField;
    location    "15";
    object      p;
}
// * * * * * * * * * * * * * * * * * * * * * * * * * * * * * * * * * * * * * //

dimensions      [0 2 -2 0 0 0 0];

internalField   nonuniform List<scalar> 
67500
(
2.13225
2.1297
2.12767
2.12705
2.12698
2.12699
2.12704
2.12717
2.12742
2.1278
2.12832
2.12896
2.12973
2.13062
2.13165
2.13282
2.13416
2.13567
2.13738
2.13929
2.14144
2.14384
2.14653
2.14951
2.15282
2.15649
2.1605
2.16482
2.16933
2.17379
2.17759
2.18013
2.18009
2.17092
2.15142
2.12747
2.10478
2.08775
2.0769
2.06985
2.06394
2.05808
2.0522
2.04649
2.04099
2.03559
2.03021
2.02482
2.01943
2.01403
2.00859
2.00309
1.99752
1.99189
1.9862
1.98043
1.97457
1.96863
1.96258
1.95643
1.95016
1.94376
1.93724
1.93058
1.92378
1.91682
1.9097
1.90242
1.89495
1.8873
1.87946
1.87142
1.86316
1.85468
1.84597
1.83702
1.82782
1.81835
1.80861
1.79858
1.78826
1.77763
1.76667
1.75538
1.74375
1.73175
1.71938
1.70662
1.69345
1.67987
1.66584
1.65136
1.6364
1.62096
1.60501
1.58854
1.57153
1.55395
1.5358
1.51705
1.49769
1.4777
1.45706
1.43575
1.41377
1.39109
1.3677
1.34359
1.31874
1.29314
1.26679
1.23968
1.2118
1.18315
1.15373
1.12354
1.09259
1.06088
1.02842
0.995242
0.961351
0.926773
0.891535
0.855669
0.81921
0.782198
0.744679
0.706702
0.668321
0.629595
0.590587
0.551363
0.511992
0.472547
0.433105
0.393746
0.354559
0.315616
0.277002
0.238799
0.201093
0.163966
0.127503
0.0917839
0.0568877
0.0228909
-0.0101333
-0.0421157
-0.072991
-0.102699
-0.131185
-0.158399
-0.184297
-0.208841
-0.232001
-0.253752
-0.274075
-0.292957
-0.310395
-0.326388
-0.340944
-0.354077
-0.365805
-0.376154
-0.38516
-0.392869
-0.399376
-0.404866
-0.409509
-0.413351
-0.416126
-0.417339
-0.416717
-0.414519
-0.411347
-0.407655
-0.403547
-0.398971
-0.393859
-0.388175
-0.381968
-0.375282
-0.368142
-0.360594
-0.352699
-0.3445
-0.336039
-0.327354
-0.318483
-0.309461
-0.300322
-0.291098
-0.281815
-0.272502
-0.263182
-0.253878
-0.244609
-0.235395
-0.226251
-0.217192
-0.208231
-0.19938
-0.190647
-0.182042
-0.173571
-0.16524
-0.157055
-0.149018
-0.141132
-0.133399
-0.125821
-0.118397
-0.111127
-0.104011
-0.0970472
-0.0902336
-0.0835683
-0.0770489
-0.0706727
-0.0644368
-0.0583381
-0.0523735
-0.0465395
-0.0408328
-0.0352499
-0.0297876
-0.0244422
-0.0192103
-0.0140887
-0.00907404
-0.00416299
0.000647699
0.00536087
0.00997962
0.0145069
0.0189454
0.0232978
0.0275667
0.0317546
0.0358639
0.0398966
0.0438551
0.0477412
0.051557
0.0553042
0.0589846
0.0625997
0.0661512
0.0696405
0.0730689
0.0764377
0.0797482
0.0830015
0.0861986
0.0893407
0.0924286
0.0954633
0.0984455
0.101376
0.104256
0.107086
0.109866
0.112598
0.115281
0.117917
0.120505
0.123047
0.125542
0.127992
0.130396
0.132756
0.135071
0.137342
0.13957
0.141754
0.143895
0.145993
0.148049
0.150063
0.152035
0.153965
0.155854
0.157701
0.159508
0.161273
0.162998
0.164682
0.166326
0.167931
0.169495
0.171019
0.172503
0.173949
0.175354
0.176721
0.178048
0.179337
0.180586
0.181797
0.182969
0.184103
0.185198
0.186255
0.187273
0.188254
0.189196
0.190101
0.190967
0.191796
0.192587
0.19334
0.194056
0.194735
0.195376
0.19598
0.196546
0.197076
0.197568
0.198023
0.198442
0.198823
0.199168
0.199476
0.199748
0.199983
0.200182
0.200345
0.200475
0.200576
0.200645
0.200668
0.200641
0.200572
0.200471
0.200342
0.200179
0.199981
0.199748
0.19948
0.199176
0.198837
0.198463
0.198055
0.197611
0.197132
0.196619
0.196071
0.195488
0.194871
0.19422
0.193535
0.192815
0.192061
0.191274
0.190453
0.189598
0.188709
0.187787
0.186831
0.185841
0.184818
0.183763
0.182676
0.181557
0.180405
0.179222
0.178007
0.17676
0.175482
0.174173
0.172832
0.171461
0.170059
0.168627
0.167164
0.165672
0.164149
0.162598
0.161017
0.159407
0.157769
0.156102
0.154408
0.152685
0.150936
0.149159
0.147355
0.145525
0.143669
0.141788
0.139881
0.13795
0.135994
0.134014
0.132011
0.129985
0.127937
0.125866
0.123775
0.121662
0.11953
0.117377
0.115206
0.113017
0.11081
0.108586
0.106346
0.104091
0.101821
0.0995381
0.0972421
0.0949343
0.0926156
0.090287
0.0879496
0.0856045
0.0832527
0.0808953
0.0785336
0.0761686
0.0738017
0.0714341
0.069067
0.0667017
0.0643394
0.0619813
0.0596287
0.0572828
0.0549446
0.0526151
0.0502952
0.0479857
0.0456871
0.0433997
0.0411234
0.0388581
0.0366027
0.034356
0.0321158
0.0298793
0.0276421
0.0253987
0.0231413
0.020859
0.0185357
0.0161421
0.0136296
0.0109682
0.00808463
0.00378652
2.12932
2.12781
2.12681
2.12652
2.12645
2.12644
2.12652
2.12672
2.12702
2.12742
2.12793
2.12854
2.12926
2.1301
2.13106
2.13215
2.13339
2.13478
2.13634
2.13808
2.14001
2.14216
2.14454
2.14715
2.15001
2.15313
2.1565
2.16004
2.16365
2.16711
2.17009
2.17162
2.16991
2.16324
2.15068
2.13336
2.11623
2.10245
2.09268
2.08473
2.07666
2.06853
2.06108
2.05448
2.04842
2.04263
2.03697
2.03137
2.0258
2.02023
2.01463
2.00897
2.00327
1.99751
1.9917
1.98582
1.97986
1.97382
1.96769
1.96146
1.95511
1.94866
1.94207
1.93536
1.92851
1.9215
1.91434
1.90702
1.89952
1.89183
1.88396
1.87588
1.86759
1.85908
1.85035
1.84137
1.83214
1.82264
1.81288
1.80283
1.79248
1.78182
1.77084
1.75953
1.74787
1.73585
1.72346
1.71067
1.69748
1.68387
1.66981
1.65531
1.64033
1.62487
1.6089
1.59241
1.57538
1.55779
1.53963
1.52087
1.50151
1.48152
1.46089
1.4396
1.41764
1.39498
1.37163
1.34756
1.32277
1.29724
1.27097
1.24395
1.21618
1.18765
1.15836
1.12832
1.09754
1.06601
1.03377
1.00081
0.967159
0.932844
0.897889
0.862325
0.826189
0.78952
0.752363
0.714767
0.676784
0.638473
0.599895
0.561113
0.522199
0.483223
0.444261
0.405391
0.366692
0.328243
0.290125
0.252419
0.215207
0.178571
0.142591
0.107345
0.0729091
0.0393582
0.00676235
-0.0248116
-0.055301
-0.0846479
-0.112799
-0.139708
-0.165331
-0.189633
-0.212585
-0.234162
-0.254347
-0.273129
-0.290503
-0.306471
-0.321039
-0.33422
-0.346034
-0.356505
-0.365662
-0.373538
-0.380164
-0.385594
-0.389929
-0.393231
-0.395513
-0.396693
-0.396697
-0.395655
-0.393776
-0.391163
-0.38786
-0.383893
-0.379281
-0.374081
-0.368338
-0.362103
-0.355431
-0.348365
-0.340945
-0.333216
-0.325217
-0.316989
-0.308569
-0.299989
-0.291284
-0.282483
-0.273614
-0.264703
-0.255774
-0.246849
-0.237948
-0.229088
-0.220287
-0.211558
-0.202915
-0.194368
-0.185928
-0.177604
-0.169402
-0.161328
-0.153388
-0.145584
-0.137922
-0.130402
-0.123025
-0.115794
-0.108706
-0.101764
-0.0949641
-0.0883064
-0.0817888
-0.0754093
-0.0691656
-0.063055
-0.0570749
-0.0512223
-0.0454942
-0.0398877
-0.0343994
-0.0290264
-0.0237653
-0.0186131
-0.0135667
-0.00862294
-0.00377882
0.000968539
0.00562212
0.0101846
0.0146588
0.0190472
0.0233524
0.0275768
0.0317227
0.0357922
0.0397876
0.0437108
0.0475637
0.0513481
0.0550657
0.0587182
0.0623072
0.0658339
0.0692999
0.0727065
0.0760547
0.0793459
0.0825811
0.0857612
0.0888874
0.0919604
0.0949812
0.0979506
0.100869
0.103738
0.106557
0.109328
0.112051
0.114726
0.117354
0.119936
0.122472
0.124962
0.127407
0.129808
0.132164
0.134476
0.136745
0.138971
0.141153
0.143293
0.145391
0.147447
0.149461
0.151434
0.153365
0.155255
0.157105
0.158913
0.160682
0.162409
0.164097
0.165745
0.167353
0.168921
0.170449
0.171939
0.173389
0.1748
0.176172
0.177505
0.178799
0.180055
0.181272
0.18245
0.183591
0.184693
0.185757
0.186782
0.18777
0.18872
0.189632
0.190507
0.191343
0.192142
0.192904
0.193628
0.194315
0.194965
0.195577
0.196153
0.196691
0.197192
0.197656
0.198084
0.198475
0.198829
0.199146
0.199427
0.199672
0.19988
0.200052
0.200188
0.200288
0.200354
0.200383
0.200372
0.200324
0.200244
0.200127
0.199975
0.199787
0.199564
0.199306
0.199012
0.198684
0.19832
0.197921
0.197487
0.197019
0.196515
0.195978
0.195405
0.194798
0.194157
0.193482
0.192772
0.192029
0.191251
0.19044
0.189595
0.188717
0.187804
0.186859
0.18588
0.184868
0.183823
0.182746
0.181636
0.180495
0.179321
0.178116
0.176879
0.175611
0.174311
0.17298
0.171618
0.170226
0.168803
0.16735
0.165867
0.164354
0.162811
0.161239
0.159639
0.158009
0.156351
0.154665
0.152951
0.15121
0.149441
0.147646
0.145824
0.143976
0.142102
0.140203
0.138279
0.13633
0.134358
0.132361
0.130342
0.1283
0.126236
0.12415
0.122044
0.119917
0.11777
0.115604
0.113419
0.111216
0.108997
0.106761
0.104509
0.102242
0.0999615
0.0976677
0.0953616
0.0930441
0.0907162
0.0883789
0.0860331
0.08368
0.0813206
0.078956
0.0765873
0.0742157
0.0718422
0.0694681
0.0670945
0.0647225
0.0623532
0.0599877
0.057627
0.0552719
0.0529234
0.050582
0.0482483
0.0459226
0.0436048
0.0412947
0.0389915
0.036694
0.0344003
0.0321078
0.0298129
0.0275105
0.0251939
0.0228538
0.0204778
0.0180484
0.0155351
0.0128862
0.0101042
0.00729231
0.00345826
2.12767
2.12729
2.12683
2.12651
2.12634
2.12631
2.12639
2.12658
2.12686
2.12723
2.12769
2.12824
2.1289
2.12967
2.13055
2.13155
2.13267
2.13393
2.13533
2.13688
2.13858
2.14046
2.14249
2.14468
2.147
2.14946
2.15201
2.15452
2.15682
2.15865
2.15957
2.15885
2.15567
2.14964
2.13994
2.12746
2.11437
2.10281
2.09364
2.08633
2.08022
2.07453
2.06879
2.06281
2.05635
2.04958
2.04291
2.0366
2.03065
2.02489
2.0192
2.01353
2.00781
2.00202
1.99617
1.99024
1.98423
1.97813
1.97195
1.96566
1.95927
1.95276
1.94614
1.93939
1.9325
1.92546
1.91827
1.91091
1.90339
1.89568
1.88778
1.87969
1.87138
1.86285
1.85409
1.8451
1.83585
1.82634
1.81656
1.80649
1.79612
1.78545
1.77446
1.76314
1.75146
1.73943
1.72702
1.71422
1.70101
1.68738
1.67332
1.6588
1.64381
1.62833
1.61235
1.59585
1.57881
1.56121
1.54305
1.52429
1.50492
1.48494
1.46431
1.44303
1.42109
1.39845
1.37513
1.35109
1.32634
1.30086
1.27464
1.24768
1.21998
1.19153
1.16234
1.1324
1.10173
1.07034
1.03823
1.00543
0.971948
0.937815
0.903056
0.867703
0.831791
0.795362
0.758458
0.721129
0.683427
0.645409
0.607136
0.568669
0.53008
0.491443
0.45283
0.414317
0.375978
0.337894
0.300146
0.262814
0.225977
0.189715
0.154107
0.119228
0.0851547
0.0519576
0.0197057
-0.0115361
-0.041707
-0.070751
-0.0986167
-0.125259
-0.150636
-0.174715
-0.197467
-0.218869
-0.238905
-0.257566
-0.274846
-0.290748
-0.305279
-0.318453
-0.330287
-0.340805
-0.350035
-0.358007
-0.364748
-0.37028
-0.374639
-0.377889
-0.380092
-0.381339
-0.381724
-0.381268
-0.379963
-0.377839
-0.37495
-0.371345
-0.36709
-0.36225
-0.356872
-0.351007
-0.344704
-0.338009
-0.330962
-0.323604
-0.315975
-0.308115
-0.300057
-0.291836
-0.283483
-0.275028
-0.266498
-0.257918
-0.249312
-0.240701
-0.232105
-0.223542
-0.215028
-0.206576
-0.1982
-0.189911
-0.18172
-0.173633
-0.16566
-0.157805
-0.150075
-0.142472
-0.135001
-0.127664
-0.120463
-0.113397
-0.106469
-0.0996766
-0.0930203
-0.0864988
-0.0801106
-0.0738538
-0.0677265
-0.0617263
-0.0558508
-0.0500973
-0.0444631
-0.0389453
-0.0335411
-0.0282476
-0.0230618
-0.0179808
-0.0130016
-0.00812147
-0.00333747
0.00135309
0.00595296
0.0104648
0.014891
0.0192341
0.0234965
0.0276805
0.0317882
0.0358217
0.039783
0.0436741
0.0474966
0.0512524
0.054943
0.0585701
0.0621349
0.065639
0.0690837
0.0724701
0.0757994
0.0790728
0.0822912
0.0854557
0.0885672
0.0916264
0.0946343
0.0975916
0.100499
0.103357
0.106167
0.108929
0.111643
0.114311
0.116932
0.119508
0.122038
0.124523
0.126964
0.12936
0.131712
0.134022
0.136288
0.138511
0.140692
0.142831
0.144928
0.146984
0.148998
0.15097
0.152902
0.154793
0.156644
0.158454
0.160224
0.161954
0.163644
0.165294
0.166905
0.168477
0.170009
0.171502
0.172956
0.174371
0.175747
0.177085
0.178384
0.179644
0.180866
0.18205
0.183196
0.184303
0.185373
0.186405
0.187398
0.188354
0.189273
0.190154
0.190997
0.191803
0.192571
0.193302
0.193996
0.194652
0.195272
0.195854
0.1964
0.196909
0.197381
0.197816
0.198214
0.198576
0.198901
0.19919
0.199442
0.199658
0.199838
0.199981
0.200087
0.200155
0.20019
0.200191
0.200157
0.200086
0.199978
0.199834
0.199655
0.19944
0.19919
0.198905
0.198585
0.198229
0.197839
0.197414
0.196954
0.196459
0.195929
0.195365
0.194767
0.194134
0.193467
0.192766
0.192031
0.191262
0.190459
0.189623
0.188753
0.187849
0.186912
0.185942
0.184938
0.183902
0.182834
0.181733
0.180599
0.179434
0.178237
0.177008
0.175748
0.174456
0.173133
0.171779
0.170395
0.16898
0.167534
0.166059
0.164553
0.163018
0.161454
0.159861
0.158238
0.156587
0.154908
0.153202
0.151467
0.149705
0.147916
0.146101
0.144259
0.142392
0.140499
0.138581
0.136638
0.134671
0.13268
0.130666
0.128629
0.12657
0.124489
0.122387
0.120264
0.118121
0.115959
0.113778
0.111579
0.109362
0.107128
0.104879
0.102614
0.100335
0.0980424
0.095737
0.0934197
0.0910916
0.0887534
0.0864063
0.0840512
0.0816891
0.0793211
0.0769482
0.0745714
0.072192
0.0698108
0.067429
0.0650477
0.0626678
0.0602902
0.0579158
0.0555455
0.0531799
0.0508194
0.0484645
0.0461153
0.0437715
0.0414327
0.039098
0.0367658
0.034434
0.0320999
0.0297594
0.0274074
0.0250369
0.0226389
0.0202016
0.0177101
0.0151381
0.0124396
0.00964913
0.00699253
0.00347907
2.12664
2.1265
2.12618
2.1259
2.12577
2.12577
2.12585
2.12603
2.1263
2.12665
2.12708
2.12759
2.1282
2.1289
2.1297
2.13061
2.13161
2.13273
2.13397
2.13532
2.13679
2.13837
2.14006
2.14183
2.14367
2.14554
2.14736
2.14902
2.15033
2.15108
2.15091
2.14943
2.14617
2.14081
2.13295
2.12313
2.11239
2.10282
2.09454
2.08732
2.08085
2.07482
2.06883
2.06303
2.05772
2.05266
2.04742
2.04197
2.03627
2.03021
2.02394
2.01776
2.01171
2.00576
1.99984
1.9939
1.98792
1.98186
1.97568
1.96939
1.96298
1.95646
1.94982
1.94305
1.93614
1.92908
1.92187
1.9145
1.90696
1.89924
1.89133
1.88322
1.8749
1.86636
1.8576
1.8486
1.83934
1.82983
1.82004
1.80997
1.7996
1.78892
1.77793
1.76659
1.75491
1.74287
1.73046
1.71765
1.70444
1.6908
1.67673
1.66221
1.64721
1.63173
1.61575
1.59924
1.5822
1.56461
1.54644
1.52768
1.50832
1.48834
1.46772
1.44645
1.42451
1.40189
1.37858
1.35457
1.32984
1.30439
1.2782
1.25129
1.22363
1.19523
1.16609
1.13622
1.10562
1.07431
1.04229
1.00958
0.976202
0.942182
0.907545
0.872324
0.836554
0.800276
0.763534
0.726376
0.688855
0.651027
0.612953
0.574693
0.536316
0.497906
0.459528
0.421258
0.383171
0.345347
0.307864
0.270802
0.23424
0.198256
0.162928
0.128332
0.0945397
0.0616228
0.0296483
-0.00132049
-0.0312243
-0.0600085
-0.0876235
-0.114025
-0.139175
-0.163039
-0.185591
-0.206811
-0.226682
-0.245196
-0.26235
-0.278146
-0.292593
-0.305704
-0.317499
-0.328
-0.337235
-0.345236
-0.352036
-0.35767
-0.362178
-0.36561
-0.368014
-0.369452
-0.369989
-0.369664
-0.368504
-0.366555
-0.363873
-0.360508
-0.356514
-0.351945
-0.346849
-0.341272
-0.335262
-0.328861
-0.322112
-0.315055
-0.307728
-0.300168
-0.29241
-0.284487
-0.276429
-0.268265
-0.260022
-0.251724
-0.243394
-0.235053
-0.226721
-0.218414
-0.210149
-0.20194
-0.193798
-0.185736
-0.177763
-0.169888
-0.162118
-0.154459
-0.146917
-0.139495
-0.132197
-0.125025
-0.117981
-0.111067
-0.104283
-0.0976288
-0.0911039
-0.0847075
-0.0784383
-0.0722949
-0.0662753
-0.0603774
-0.0545991
-0.048938
-0.0433914
-0.0379568
-0.0326314
-0.0274126
-0.0222976
-0.0172837
-0.0123681
-0.00754817
-0.00282118
0.00181544
0.00636424
0.0108277
0.0152082
0.019508
0.0237295
0.0278748
0.0319459
0.0359448
0.0398733
0.0437334
0.0475267
0.0512549
0.0549194
0.0585218
0.0620634
0.0655455
0.0689694
0.0723363
0.0756472
0.0789033
0.0821054
0.0852546
0.0883516
0.0913974
0.0943926
0.0973381
0.100235
0.103082
0.105883
0.108636
0.111342
0.114002
0.116616
0.119185
0.121709
0.124189
0.126625
0.129017
0.131366
0.133672
0.135935
0.138156
0.140335
0.142472
0.144568
0.146623
0.148636
0.150609
0.152541
0.154432
0.156283
0.158094
0.159866
0.161597
0.163289
0.164942
0.166555
0.168129
0.169664
0.17116
0.172617
0.174035
0.175415
0.176756
0.178059
0.179324
0.18055
0.181739
0.182889
0.184001
0.185076
0.186112
0.187111
0.188072
0.188996
0.189882
0.190731
0.191543
0.192317
0.193054
0.193754
0.194416
0.195042
0.195631
0.196183
0.196698
0.197176
0.197617
0.198022
0.198391
0.198723
0.199018
0.199277
0.1995
0.199687
0.199837
0.199951
0.200028
0.20007
0.200077
0.200049
0.199984
0.199883
0.199747
0.199575
0.199368
0.199125
0.198847
0.198534
0.198186
0.197803
0.197385
0.196932
0.196445
0.195923
0.195366
0.194775
0.19415
0.19349
0.192796
0.192069
0.191307
0.190512
0.189682
0.18882
0.187924
0.186994
0.186031
0.185035
0.184007
0.182945
0.181852
0.180726
0.179568
0.178378
0.177156
0.175903
0.174618
0.173302
0.171955
0.170577
0.169169
0.16773
0.166261
0.164762
0.163234
0.161676
0.160089
0.158473
0.156828
0.155155
0.153454
0.151726
0.149969
0.148186
0.146376
0.14454
0.142678
0.14079
0.138877
0.136939
0.134977
0.13299
0.130981
0.128948
0.126893
0.124816
0.122717
0.120597
0.118458
0.116298
0.11412
0.111923
0.109708
0.107476
0.105228
0.102964
0.100686
0.0983933
0.0960877
0.0937699
0.0914406
0.0891009
0.0867516
0.0843937
0.0820282
0.079656
0.0772783
0.0748959
0.07251
0.0701214
0.0677313
0.0653405
0.0629499
0.0605605
0.0581731
0.0557882
0.0534065
0.0510283
0.0486541
0.0462836
0.0439167
0.0415527
0.0391906
0.036829
0.0344655
0.0320975
0.0297211
0.0273313
0.024922
0.0224849
0.0200103
0.0174872
0.014895
0.0121943
0.00944377
0.00693925
0.00360246
2.12576
2.12568
2.12551
2.12536
2.12531
2.12534
2.12544
2.12562
2.12587
2.12619
2.12658
2.12704
2.12759
2.12822
2.12893
2.12973
2.13061
2.13158
2.13264
2.13379
2.13501
2.13631
2.13767
2.13905
2.14043
2.14176
2.14296
2.14392
2.14449
2.14447
2.14363
2.1417
2.13839
2.13348
2.12694
2.11902
2.11054
2.10235
2.09469
2.08761
2.08102
2.07516
2.06947
2.0638
2.05842
2.05319
2.04793
2.04253
2.03727
2.03219
2.02705
2.02171
2.01615
2.01033
2.0042
1.99788
1.99161
1.98539
1.97916
1.97285
1.96645
1.95997
1.95338
1.94664
1.93976
1.93271
1.9255
1.91813
1.91059
1.90287
1.89496
1.88685
1.87853
1.87
1.86124
1.85224
1.84299
1.83348
1.8237
1.81363
1.80326
1.79259
1.7816
1.77027
1.7586
1.74655
1.73414
1.72134
1.70813
1.6945
1.68043
1.66591
1.65092
1.63544
1.61946
1.60296
1.58592
1.56833
1.55016
1.53141
1.51205
1.49208
1.47146
1.4502
1.42827
1.40567
1.38237
1.35837
1.33365
1.30821
1.28205
1.25515
1.22751
1.19914
1.17004
1.1402
1.10964
1.07836
1.04639
1.01373
0.980405
0.946445
0.911874
0.876725
0.841035
0.804842
0.768191
0.731132
0.693717
0.656002
0.618046
0.579913
0.541669
0.503399
0.465177
0.427068
0.389152
0.351507
0.314212
0.277346
0.240988
0.205215
0.170105
0.135732
0.102168
0.069484
0.0377451
0.00701377
-0.022652
-0.0511991
-0.0785792
-0.10475
-0.129673
-0.153319
-0.175661
-0.19668
-0.216362
-0.234701
-0.251693
-0.267344
-0.281662
-0.294663
-0.306365
-0.316794
-0.325976
-0.333945
-0.340735
-0.346387
-0.350944
-0.354451
-0.356953
-0.358497
-0.359135
-0.358912
-0.357875
-0.356076
-0.353565
-0.350392
-0.346605
-0.342255
-0.337387
-0.332048
-0.326282
-0.320133
-0.313641
-0.306844
-0.299782
-0.292488
-0.284998
-0.277342
-0.26955
-0.261651
-0.253669
-0.24563
-0.237555
-0.229465
-0.221379
-0.213313
-0.205282
-0.197301
-0.189382
-0.181536
-0.173773
-0.1661
-0.158526
-0.151055
-0.143695
-0.136447
-0.129318
-0.122307
-0.115419
-0.108653
-0.102011
-0.0954919
-0.0890966
-0.082824
-0.076673
-0.0706421
-0.0647298
-0.0589341
-0.053253
-0.0476843
-0.0422256
-0.0368745
-0.0316285
-0.0264851
-0.0214416
-0.0164956
-0.0116444
-0.00688547
-0.00221637
0.00236536
0.00686215
0.0112763
0.0156101
0.0198658
0.0240454
0.028151
0.0321845
0.0361479
0.0400428
0.043871
0.0476342
0.0513339
0.0549715
0.0585484
0.062066
0.0655255
0.068928
0.0722746
0.0755665
0.0788046
0.0819898
0.085123
0.0882051
0.0912368
0.0942189
0.097152
0.100037
0.102874
0.105664
0.108408
0.111105
0.113757
0.116364
0.118926
0.121444
0.123919
0.126349
0.128737
0.131081
0.133384
0.135644
0.137862
0.140039
0.142174
0.144268
0.146321
0.148334
0.150306
0.152237
0.154129
0.155981
0.157792
0.159565
0.161297
0.162991
0.164645
0.16626
0.167836
0.169374
0.170872
0.172332
0.173754
0.175137
0.176482
0.177788
0.179057
0.180287
0.181479
0.182634
0.18375
0.184829
0.185871
0.186874
0.187841
0.188769
0.189661
0.190515
0.191332
0.192111
0.192854
0.193559
0.194227
0.194859
0.195454
0.196011
0.196532
0.197017
0.197464
0.197876
0.19825
0.198589
0.19889
0.199156
0.199385
0.199578
0.199735
0.199856
0.199941
0.199989
0.200003
0.19998
0.199922
0.199828
0.199699
0.199534
0.199333
0.199098
0.198827
0.198521
0.19818
0.197804
0.197393
0.196947
0.196466
0.195951
0.195402
0.194818
0.194199
0.193547
0.19286
0.192139
0.191385
0.190596
0.189774
0.188918
0.188029
0.187107
0.186151
0.185162
0.184141
0.183086
0.182
0.18088
0.179729
0.178546
0.177331
0.176084
0.174806
0.173497
0.172156
0.170785
0.169383
0.16795
0.166488
0.164995
0.163473
0.161921
0.160339
0.158729
0.15709
0.155423
0.153728
0.152004
0.150254
0.148476
0.146671
0.144839
0.142982
0.141099
0.13919
0.137257
0.135299
0.133316
0.13131
0.129281
0.12723
0.125156
0.12306
0.120943
0.118806
0.116649
0.114472
0.112277
0.110064
0.107833
0.105586
0.103322
0.101044
0.098751
0.0964446
0.0941254
0.0917943
0.0894522
0.0871
0.0847387
0.082369
0.0799921
0.0776088
0.0752201
0.0728269
0.0704303
0.0680311
0.0656303
0.0632286
0.0608269
0.0584259
0.0560263
0.0536284
0.0512327
0.0488393
0.0464482
0.044059
0.0416711
0.0392835
0.0368947
0.0345026
0.0321047
0.0296973
0.0272762
0.0248359
0.0223697
0.01987
0.0173294
0.0147318
0.0120428
0.00933826
0.0069601
0.00373367
2.12495
2.12492
2.12485
2.12477
2.12474
2.12478
2.12487
2.12503
2.12525
2.12554
2.12588
2.1263
2.12678
2.12733
2.12795
2.12864
2.1294
2.13022
2.13111
2.13206
2.13306
2.13409
2.13514
2.13617
2.13715
2.13802
2.13871
2.13912
2.13913
2.13859
2.13731
2.13511
2.13183
2.12737
2.12175
2.11519
2.10812
2.10098
2.09408
2.08758
2.08143
2.07562
2.06993
2.06431
2.05876
2.05339
2.04837
2.04323
2.038
2.03283
2.02763
2.02238
2.01706
2.01175
2.00643
2.0009
1.99522
1.98933
1.98318
1.97674
1.97007
1.96341
1.95676
1.95004
1.94318
1.93616
1.92898
1.92167
1.91419
1.90652
1.89864
1.89056
1.88226
1.87374
1.865
1.85602
1.8468
1.83731
1.82754
1.81749
1.80714
1.79648
1.78551
1.7742
1.76254
1.75052
1.73811
1.72532
1.71212
1.6985
1.68445
1.66994
1.65497
1.6395
1.62354
1.60705
1.59002
1.57243
1.55428
1.53553
1.51618
1.49621
1.47561
1.45435
1.43243
1.40982
1.38653
1.36253
1.33781
1.31238
1.28621
1.25931
1.23168
1.2033
1.17419
1.14435
1.11379
1.08251
1.05053
1.01787
0.984554
0.950596
0.91603
0.880887
0.845205
0.809024
0.772389
0.735348
0.697955
0.660267
0.622343
0.584247
0.546046
0.507822
0.469661
0.431623
0.393787
0.356233
0.319039
0.282285
0.24605
0.210412
0.175448
0.141231
0.107835
0.0753284
0.0437765
0.0132407
-0.0162219
-0.0445592
-0.0717245
-0.0976763
-0.122379
-0.145803
-0.167925
-0.188726
-0.208196
-0.226328
-0.243122
-0.258585
-0.272726
-0.285564
-0.297117
-0.307412
-0.316478
-0.324349
-0.331059
-0.33665
-0.341166
-0.344652
-0.347154
-0.348718
-0.349394
-0.34923
-0.348272
-0.346571
-0.344174
-0.341131
-0.33749
-0.333298
-0.328601
-0.323445
-0.317872
-0.311925
-0.305642
-0.299063
-0.292222
-0.285155
-0.277895
-0.270472
-0.262914
-0.255249
-0.247502
-0.239696
-0.231852
-0.22399
-0.216129
-0.208285
-0.200472
-0.192704
-0.184993
-0.17735
-0.169784
-0.162303
-0.154915
-0.147624
-0.140438
-0.133358
-0.12639
-0.119536
-0.112797
-0.106176
-0.0996714
-0.0932852
-0.0870168
-0.0808656
-0.0748306
-0.0689106
-0.0631041
-0.0574095
-0.0518247
-0.0463477
-0.0409764
-0.0357085
-0.0305416
-0.0254735
-0.0205016
-0.0156235
-0.0108369
-0.00613937
-0.00152853
0.00299792
0.00744224
0.0118066
0.0160932
0.0203041
0.0244413
0.0285066
0.0325021
0.0364293
0.0402901
0.0440859
0.0478184
0.051489
0.0550992
0.0586501
0.0621431
0.0655794
0.0689599
0.0722859
0.0755582
0.0787779
0.0819457
0.0850626
0.0881293
0.0911465
0.094115
0.0970354
0.0999083
0.102734
0.105514
0.108248
0.110936
0.11358
0.116179
0.118734
0.121246
0.123714
0.126139
0.128522
0.130862
0.13316
0.135417
0.137632
0.139806
0.141939
0.144031
0.146083
0.148094
0.150065
0.151996
0.153888
0.155739
0.157551
0.159324
0.161058
0.162753
0.164408
0.166025
0.167603
0.169142
0.170643
0.172106
0.17353
0.174916
0.176264
0.177574
0.178846
0.180079
0.181276
0.182434
0.183555
0.184638
0.185683
0.186692
0.187662
0.188596
0.189492
0.190351
0.191172
0.191957
0.192705
0.193415
0.194089
0.194726
0.195326
0.195889
0.196416
0.196906
0.19736
0.197777
0.198157
0.198501
0.198809
0.199081
0.199316
0.199515
0.199678
0.199805
0.199896
0.199951
0.199971
0.199955
0.199903
0.199816
0.199692
0.199534
0.19934
0.199111
0.198846
0.198547
0.198212
0.197843
0.197438
0.196999
0.196525
0.196017
0.195474
0.194896
0.194284
0.193639
0.192958
0.192244
0.191496
0.190714
0.189899
0.18905
0.188167
0.187251
0.186302
0.18532
0.184305
0.183257
0.182177
0.181065
0.17992
0.178743
0.177534
0.176294
0.175022
0.173718
0.172384
0.171019
0.169622
0.168196
0.166739
0.165252
0.163735
0.162189
0.160613
0.159008
0.157375
0.155713
0.154022
0.152304
0.150558
0.148785
0.146985
0.145158
0.143305
0.141426
0.139521
0.137591
0.135637
0.133658
0.131656
0.12963
0.127581
0.12551
0.123417
0.121302
0.119167
0.117012
0.114836
0.112642
0.11043
0.1082
0.105952
0.103689
0.10141
0.0991158
0.0968078
0.0944867
0.0921531
0.089808
0.0874523
0.0850867
0.0827123
0.0803298
0.0779403
0.0755446
0.0731437
0.0707384
0.0683297
0.0659183
0.0635051
0.0610908
0.0586761
0.0562615
0.0538476
0.0514345
0.0490225
0.0466114
0.044201
0.0417907
0.0393794
0.0369659
0.0345483
0.0321241
0.0296905
0.0272437
0.0247793
0.0222918
0.0197758
0.0172269
0.0146322
0.0119602
0.00929848
0.00702337
0.00386736
2.1242
2.12419
2.12416
2.12412
2.12412
2.12416
2.12426
2.12441
2.12461
2.12487
2.12518
2.12554
2.12596
2.12644
2.12697
2.12755
2.12819
2.12887
2.1296
2.13036
2.13114
2.13192
2.13268
2.1334
2.13402
2.13451
2.13478
2.13477
2.13435
2.13343
2.13187
2.12954
2.12636
2.12228
2.11733
2.11168
2.10555
2.09928
2.09308
2.08707
2.08126
2.07561
2.0701
2.06469
2.05938
2.05419
2.04909
2.04393
2.03869
2.0334
2.02811
2.02309
2.01803
2.0127
2.00729
2.00178
1.99619
1.99064
1.985
1.97918
1.97313
1.9669
1.9605
1.95389
1.94699
1.93982
1.93249
1.92514
1.91768
1.91006
1.90226
1.89423
1.88599
1.87753
1.86885
1.85992
1.85074
1.8413
1.83157
1.82155
1.81123
1.80061
1.78967
1.77839
1.76677
1.75478
1.7424
1.72963
1.71645
1.70285
1.68882
1.67434
1.65939
1.64395
1.62801
1.61154
1.59452
1.57695
1.55881
1.54008
1.52074
1.50078
1.48018
1.45892
1.437
1.4144
1.3911
1.36709
1.34236
1.3169
1.29072
1.26379
1.23613
1.20772
1.17857
1.14869
1.11808
1.08675
1.05472
1.02201
0.988629
0.954609
0.919978
0.884768
0.849018
0.812767
0.776062
0.738951
0.701489
0.663733
0.625743
0.587586
0.549329
0.511051
0.472841
0.434774
0.396917
0.359353
0.322164
0.285428
0.249225
0.213636
0.178735
0.1446
0.111301
0.0789084
0.0474871
0.0170982
-0.0122022
-0.0403626
-0.0673375
-0.0930868
-0.117576
-0.140778
-0.16267
-0.183237
-0.202469
-0.220362
-0.236919
-0.252148
-0.266061
-0.278677
-0.290019
-0.300115
-0.308994
-0.316693
-0.323249
-0.328702
-0.333097
-0.336483
-0.338905
-0.340409
-0.341044
-0.340859
-0.339902
-0.33822
-0.335862
-0.332876
-0.32931
-0.325209
-0.32062
-0.315584
-0.310146
-0.304344
-0.298218
-0.291805
-0.285139
-0.278255
-0.271183
-0.263953
-0.256592
-0.249127
-0.241583
-0.23398
-0.22634
-0.218681
-0.211022
-0.203378
-0.195763
-0.18819
-0.18067
-0.173215
-0.165832
-0.15853
-0.151316
-0.144195
-0.137173
-0.130253
-0.12344
-0.116734
-0.110139
-0.103656
-0.0972847
-0.0910266
-0.0848811
-0.0788477
-0.0729257
-0.067114
-0.061411
-0.0558153
-0.050325
-0.0449383
-0.0396531
-0.0344673
-0.0293788
-0.0243852
-0.0194842
-0.0146738
-0.00995143
-0.00531501
-0.000762275
0.00370895
0.0081008
0.0124154
0.0166546
0.0208206
0.0249151
0.02894
0.0328971
0.036788
0.0406143
0.0443774
0.0480789
0.0517201
0.0553025
0.0588271
0.0622952
0.0657079
0.0690663
0.0723712
0.0756237
0.0788246
0.0819748
0.085075
0.088126
0.0911285
0.0940831
0.0969904
0.0998511
0.102666
0.105435
0.108159
0.110838
0.113473
0.116064
0.118612
0.121116
0.123578
0.125998
0.128375
0.130711
0.133005
0.135257
0.137469
0.13964
0.14177
0.14386
0.14591
0.14792
0.14989
0.15182
0.153711
0.155563
0.157375
0.159148
0.160882
0.162578
0.164235
0.165853
0.167432
0.168974
0.170476
0.171941
0.173368
0.174756
0.176107
0.17742
0.178694
0.179932
0.181131
0.182293
0.183417
0.184504
0.185554
0.186566
0.187541
0.188478
0.189379
0.190242
0.191068
0.191858
0.19261
0.193326
0.194004
0.194646
0.195251
0.19582
0.196352
0.196847
0.197306
0.197728
0.198114
0.198464
0.198777
0.199054
0.199295
0.1995
0.199669
0.199802
0.199898
0.19996
0.199985
0.199975
0.199929
0.199847
0.19973
0.199578
0.19939
0.199167
0.198908
0.198615
0.198286
0.197923
0.197525
0.197092
0.196624
0.196121
0.195584
0.195013
0.194408
0.193768
0.193094
0.192386
0.191644
0.190868
0.190059
0.189216
0.188339
0.18743
0.186487
0.185511
0.184502
0.18346
0.182386
0.181279
0.18014
0.178969
0.177766
0.176532
0.175265
0.173968
0.172639
0.171279
0.169889
0.168467
0.167016
0.165534
0.164023
0.162481
0.160911
0.159311
0.157682
0.156025
0.154339
0.152625
0.150883
0.149114
0.147318
0.145496
0.143646
0.141771
0.13987
0.137944
0.135992
0.134017
0.132017
0.129994
0.127947
0.125878
0.123787
0.121674
0.11954
0.117386
0.115212
0.113018
0.110806
0.108576
0.106328
0.104063
0.101783
0.0994875
0.0971775
0.0948537
0.092517
0.0901683
0.0878083
0.0854379
0.083058
0.0806695
0.0782732
0.07587
0.0734607
0.0710463
0.0686276
0.0662053
0.0637802
0.0613531
0.0589246
0.0564952
0.0540653
0.0516353
0.0492053
0.0467752
0.0443448
0.0419135
0.0394805
0.0370447
0.0346044
0.0321577
0.0297021
0.0272345
0.0247516
0.0222491
0.0197233
0.017172
0.0145848
0.0119308
0.00930643
0.00711533
0.00400289
2.12347
2.12346
2.12345
2.12344
2.12346
2.12351
2.12361
2.12374
2.12392
2.12414
2.1244
2.12471
2.12506
2.12546
2.1259
2.12638
2.12689
2.12744
2.12801
2.12858
2.12916
2.12972
2.13023
2.13067
2.13099
2.13115
2.1311
2.13075
2.13002
2.12884
2.12711
2.12474
2.12168
2.11791
2.11347
2.10847
2.10306
2.09746
2.09182
2.08624
2.08074
2.07535
2.07007
2.06487
2.05973
2.05464
2.04957
2.04451
2.03942
2.03433
2.02924
2.02417
2.01902
2.01368
2.00825
2.00268
1.99716
1.99188
1.98633
1.98044
1.97445
1.96834
1.96221
1.9561
1.94972
1.943
1.93606
1.92893
1.92159
1.914
1.90615
1.89806
1.88979
1.88134
1.87271
1.86386
1.85476
1.8454
1.83574
1.82579
1.81553
1.80496
1.79408