/*--------------------------------*- C++ -*----------------------------------*\
| =========                 |                                                 |
| \\      /  F ield         | foam-extend: Open Source CFD                    |
|  \\    /   O peration     | Version:     4.1                                |
|   \\  /    A nd           | Web:         http://www.foam-extend.org         |
|    \\/     M anipulation  |                                                 |
\*---------------------------------------------------------------------------*/
FoamFile
{
    version     2.0;
    format      ascii;
    class       surfaceScalarField;
    location    "15";
    object      phi;
}
// * * * * * * * * * * * * * * * * * * * * * * * * * * * * * * * * * * * * * //

dimensions      [0 3 -1 0 0 0 0];

internalField   nonuniform List<scalar> 
134400
(
0.000532037
1.29617e-06
0.000530609
1.42829e-06
0.000529047
1.56214e-06
0.000527422
1.62475e-06
0.000525688
1.73384e-06
0.000523857
1.8309e-06
0.000521961
1.89608e-06
0.000519964
1.99688e-06
0.000517857
2.10776e-06
0.000515633
2.22384e-06
0.000513281
2.35185e-06
0.000510785
2.49586e-06
0.000508126
2.65945e-06
0.000505278
2.84742e-06
0.000502214
3.06438e-06
0.000498896
3.31775e-06
0.000495284
3.61158e-06
0.000491328
3.95658e-06
0.00048697
4.35825e-06
0.000482134
4.83597e-06
0.000476739
5.39433e-06
0.000470674
6.06544e-06
0.00046382
6.85417e-06
0.00045601
7.81008e-06
0.000447043
8.96669e-06
0.000436676
1.03667e-05
0.000424608
1.2068e-05
0.000410465
1.41432e-05
0.000393776
1.6689e-05
0.000374039
1.97369e-05
0.000350353
2.36858e-05
0.000321793
2.85601e-05
0.000288444
3.33489e-05
0.000250355
3.80888e-05
0.000210525
3.98306e-05
0.000173739
3.67854e-05
0.000144146
2.95935e-05
0.000123097
2.10491e-05
0.000109085
1.40118e-05
9.94804e-05
9.60468e-06
9.21575e-05
7.32285e-06
8.60216e-05
6.13595e-06
8.07363e-05
5.28531e-06
7.62186e-05
4.51767e-06
7.23864e-05
3.83225e-06
6.90904e-05
3.29595e-06
6.61947e-05
2.89569e-06
6.36161e-05
2.57866e-06
6.13156e-05
2.30049e-06
5.92623e-05
2.05329e-06
5.74167e-05
1.84553e-06
5.57436e-05
1.67314e-06
5.4219e-05
1.52465e-06
5.28273e-05
1.39161e-06
5.15571e-05
1.27024e-06
5.03964e-05
1.16074e-06
4.93339e-05
1.06245e-06
4.83604e-05
9.73461e-07
4.74681e-05
8.92365e-07
4.66496e-05
8.18457e-07
4.58985e-05
7.51168e-07
4.52091e-05
6.89385e-07
4.45771e-05
6.31931e-07
4.3999e-05
5.78138e-07
4.34712e-05
5.27782e-07
4.29904e-05
4.80811e-07
4.25534e-05
4.37e-07
4.21575e-05
3.9594e-07
4.18003e-05
3.57127e-07
4.14801e-05
3.20251e-07
4.11949e-05
2.85176e-07
4.09431e-05
2.51826e-07
4.07232e-05
2.19935e-07
4.05339e-05
1.89267e-07
4.03741e-05
1.5979e-07
4.02426e-05
1.31473e-07
4.01384e-05
1.04241e-07
4.00603e-05
7.80484e-08
4.00076e-05
5.27118e-08
3.99792e-05
2.83776e-08
3.99746e-05
4.68825e-09
3.99928e-05
-1.82277e-08
4.00328e-05
-3.99761e-08
4.00946e-05
-6.18613e-08
4.0178e-05
-8.33805e-08
4.02824e-05
-1.04391e-07
4.04073e-05
-1.24899e-07
4.05522e-05
-1.44911e-07
4.07166e-05
-1.64423e-07
4.09001e-05
-1.83454e-07
4.11021e-05
-2.02017e-07
4.13222e-05
-2.201e-07
4.15599e-05
-2.37688e-07
4.18146e-05
-2.54754e-07
4.20859e-05
-2.71258e-07
4.2373e-05
-2.87147e-07
4.26754e-05
-3.02367e-07
4.29923e-05
-3.16871e-07
4.33229e-05
-3.30618e-07
4.36665e-05
-3.43565e-07
4.40221e-05
-3.55668e-07
4.4389e-05
-3.66875e-07
4.47661e-05
-3.77127e-07
4.51525e-05
-3.86364e-07
4.5547e-05
-3.94515e-07
4.59485e-05
-4.01505e-07
4.63558e-05
-4.07254e-07
4.67674e-05
-4.1168e-07
4.71821e-05
-4.14702e-07
4.75984e-05
-4.16239e-07
4.80146e-05
-4.16209e-07
4.84291e-05
-4.14538e-07
4.88403e-05
-4.11162e-07
4.92463e-05
-4.06014e-07
4.96453e-05
-3.99027e-07
5.00355e-05
-3.90138e-07
5.04148e-05
-3.79288e-07
5.07812e-05
-3.66428e-07
5.11327e-05
-3.51517e-07
5.14672e-05
-3.34524e-07
5.17827e-05
-3.15424e-07
5.20769e-05
-2.94205e-07
5.23477e-05
-2.70863e-07
5.25931e-05
-2.45406e-07
5.2811e-05
-2.17855e-07
5.29992e-05
-1.88241e-07
5.31558e-05
-1.56618e-07
5.32789e-05
-1.23062e-07
5.33666e-05
-8.76606e-08
5.34171e-05
-5.05496e-08
5.3429e-05
-1.19331e-08
5.34011e-05
2.79067e-08
5.3332e-05
6.91441e-08
5.32202e-05
1.11774e-07
5.30648e-05
1.55471e-07
5.28647e-05
2.00072e-07
5.26199e-05
2.44744e-07
5.23299e-05
2.9004e-07
5.19943e-05
3.35613e-07
5.1613e-05
3.81245e-07
5.11863e-05
4.2674e-07
5.07144e-05
4.71857e-07
5.0198e-05
5.16404e-07
4.96378e-05
5.60186e-07
4.90348e-05
6.03013e-07
4.83902e-05
6.44683e-07
4.77051e-05
6.85007e-07
4.69813e-05
7.23807e-07
4.62204e-05
7.60912e-07
4.54243e-05
7.96163e-07
4.45948e-05
8.29415e-07
4.37343e-05
8.60535e-07
4.28449e-05
8.89405e-07
4.1929e-05
9.15924e-07
4.0989e-05
9.40007e-07
4.00274e-05
9.61585e-07
3.90468e-05
9.80607e-07
3.80497e-05
9.97038e-07
3.70389e-05
1.01086e-06
3.60168e-05
1.02206e-06
3.49862e-05
1.03065e-06
3.39496e-05
1.03661e-06
3.29096e-05
1.03994e-06
3.18691e-05
1.04056e-06
3.08307e-05
1.03834e-06
2.97977e-05
1.03308e-06
2.87727e-05
1.02498e-06
2.77567e-05
1.01595e-06
2.67487e-05
1.00805e-06
2.57455e-05
1.00319e-06
2.47453e-05
1.00016e-06
2.37534e-05
9.91887e-07
2.2783e-05
9.7048e-07
2.18418e-05
9.41149e-07
2.09277e-05
9.1415e-07
2.00362e-05
8.91443e-07
1.91653e-05
8.70874e-07
1.83147e-05
8.50665e-07
1.74851e-05
8.29593e-07
1.66784e-05
8.06646e-07
1.58952e-05
7.83259e-07
1.51356e-05
7.59599e-07
1.44007e-05
7.34897e-07
1.36911e-05
7.09551e-07
1.30067e-05
6.84422e-07
1.23474e-05
6.59277e-07
1.17133e-05
6.34175e-07
1.11041e-05
6.09195e-07
1.05196e-05
5.84413e-07
9.95975e-06
5.59899e-07
9.42404e-06
5.35712e-07
8.91213e-06
5.11908e-07
8.42359e-06
4.88536e-07
7.95795e-06
4.65639e-07
7.5147e-06
4.43255e-07
7.09328e-06
4.21416e-07
6.69313e-06
4.00151e-07
6.31365e-06
3.79483e-07
5.95422e-06
3.59429e-07
5.61421e-06
3.40006e-07
5.29299e-06
3.21224e-07
4.9899e-06
3.03089e-07
4.70429e-06
2.85607e-07
4.43552e-06
2.68776e-07
4.18292e-06
2.52596e-07
3.94586e-06
2.37062e-07
3.72369e-06
2.22166e-07
3.5158e-06
2.07899e-07
3.32154e-06
1.94252e-07
3.14033e-06
1.8121e-07
2.97157e-06
1.6876e-07
2.81469e-06
1.56887e-07
2.66911e-06
1.45575e-07
2.5343e-06
1.34807e-07
2.40974e-06
1.24565e-07
2.29491e-06
1.14831e-07
2.18932e-06
1.05587e-07
2.09251e-06
9.68147e-08
2.00401e-06
8.84944e-08
1.9234e-06
8.06079e-08
1.85027e-06
7.31365e-08
1.78421e-06
6.60619e-08
1.72484e-06
5.93661e-08
1.67181e-06
5.30314e-08
1.62477e-06
4.70404e-08
1.58339e-06
4.13763e-08
1.54737e-06
3.60228e-08
1.5164e-06
3.09641e-08
1.49022e-06
2.61849e-08
1.46855e-06
2.1671e-08
1.45114e-06
1.74111e-08
1.43776e-06
1.33782e-08
1.42818e-06
9.58039e-09
1.42219e-06
5.99179e-09
1.41958e-06
2.60357e-09
1.42018e-06
-5.95498e-10
1.42379e-06
-3.61504e-09
1.43026e-06
-6.46523e-09
1.43942e-06
-9.15631e-09
1.45111e-06
-1.16972e-08
1.46521e-06
-1.40963e-08
1.48157e-06
-1.63615e-08
1.50007e-06
-1.85003e-08
1.52059e-06
-2.05197e-08
1.54302e-06
-2.24262e-08
1.56724e-06
-2.42259e-08
1.59317e-06
-2.59246e-08
1.6207e-06
-2.75277e-08
1.64974e-06
-2.90402e-08
1.6802e-06
-3.04668e-08
1.71201e-06
-3.18121e-08
1.74509e-06
-3.30802e-08
1.77937e-06
-3.4275e-08
1.81477e-06
-3.54003e-08
1.85123e-06
-3.64594e-08
1.88869e-06
-3.74558e-08
1.92708e-06
-3.83924e-08
1.96635e-06
-3.92722e-08
2.00645e-06
-4.00979e-08
2.04732e-06
-4.08721e-08
2.08892e-06
-4.15972e-08
2.13119e-06
-4.22756e-08
2.1741e-06
-4.29095e-08
2.2176e-06
-4.35008e-08
2.26165e-06
-4.40516e-08
2.30622e-06
-4.45635e-08
2.35126e-06
-4.50383e-08
2.39673e-06
-4.5477e-08
2.44261e-06
-4.58801e-08
2.48886e-06
-4.62453e-08
2.53543e-06
-4.65756e-08
2.58231e-06
-4.68802e-08
2.62948e-06
-4.71609e-08
2.67689e-06
-4.74155e-08
2.72454e-06
-4.76445e-08
2.77238e-06
-4.78487e-08
2.82041e-06
-4.80291e-08
2.8686e-06
-4.81867e-08
2.91692e-06
-4.83226e-08
2.96536e-06
-4.84377e-08
3.01389e-06
-4.85329e-08
3.0625e-06
-4.86092e-08
3.11117e-06
-4.86672e-08
3.15988e-06
-4.8708e-08
3.20861e-06
-4.87321e-08
3.25735e-06
-4.87403e-08
3.30608e-06
-4.87334e-08
3.3548e-06
-4.87121e-08
3.40347e-06
-4.86769e-08
3.4521e-06
-4.86285e-08
3.50067e-06
-4.85675e-08
3.54916e-06
-4.84944e-08
3.59757e-06
-4.84099e-08
3.64589e-06
-4.83145e-08
3.6941e-06
-4.82085e-08
3.74219e-06
-4.80927e-08
3.79016e-06
-4.79673e-08
3.83799e-06
-4.78329e-08
3.88568e-06
-4.76899e-08
3.93322e-06
-4.75386e-08
3.9806e-06
-4.73796e-08
4.02781e-06
-4.72131e-08
4.07485e-06
-4.70395e-08
4.12171e-06
-4.68592e-08
4.16838e-06
-4.66726e-08
4.21486e-06
-4.64798e-08
4.26114e-06
-4.62813e-08
4.30722e-06
-4.60773e-08
4.35309e-06
-4.58682e-08
4.39874e-06
-4.56541e-08
4.44418e-06
-4.54353e-08
4.48939e-06
-4.52122e-08
4.53437e-06
-4.49848e-08
4.57913e-06
-4.47535e-08
4.62365e-06
-4.45184e-08
4.66793e-06
-4.42798e-08
4.71196e-06
-4.40378e-08
4.75576e-06
-4.37927e-08
4.7993e-06
-4.35445e-08
4.84259e-06
-4.32933e-08
4.88563e-06
-4.30393e-08
4.92842e-06
-4.27821e-08
4.97094e-06
-4.25213e-08
5.01319e-06
-4.22556e-08
5.05518e-06
-4.19826e-08
5.09687e-06
-4.16987e-08
5.13827e-06
-4.14005e-08
5.17937e-06
-4.10961e-08
5.22027e-06
-4.0897e-08
5.26111e-06
-4.08461e-08
5.30183e-06
-4.07142e-08
5.34208e-06
-4.02556e-08
5.38186e-06
-3.97733e-08
5.42131e-06
-3.94563e-08
5.46054e-06
-3.92223e-08
5.49951e-06
-3.89752e-08
5.53823e-06
-3.87151e-08
5.57667e-06
-3.84455e-08
5.61484e-06
-3.81702e-08
5.65273e-06
-3.78918e-08
5.69034e-06
-3.76116e-08
5.72768e-06
-3.73303e-08
5.76472e-06
-3.70482e-08
5.80149e-06
-3.67656e-08
5.83797e-06
-3.64826e-08
5.87417e-06
-3.61993e-08
5.91009e-06
-3.59158e-08
5.94572e-06
-3.56321e-08
5.98107e-06
-3.53482e-08
6.01613e-06
-3.50643e-08
6.05091e-06
-3.47803e-08
6.08541e-06
-3.44964e-08
6.11962e-06
-3.42125e-08
6.15355e-06
-3.39286e-08
6.18719e-06
-3.36448e-08
6.22055e-06
-3.3361e-08
6.25363e-06
-3.3077e-08
6.28642e-06
-3.2792e-08
6.31893e-06
-3.25034e-08
6.35113e-06
-3.22019e-08
6.38302e-06
-3.18917e-08
6.41461e-06
-3.15912e-08
6.44591e-06
-3.13006e-08
6.47692e-06
-3.10119e-08
6.50765e-06
-3.07232e-08
6.53808e-06
-3.04339e-08
6.56823e-06
-3.01441e-08
6.59808e-06
-2.98536e-08
6.62764e-06
-2.95626e-08
6.65691e-06
-2.92709e-08
6.68589e-06
-2.89787e-08
6.71458e-06
-2.86858e-08
6.74297e-06
-2.83923e-08
6.77107e-06
-2.80982e-08
6.79887e-06
-2.78033e-08
6.82638e-06
-2.75077e-08
6.85359e-06
-2.72113e-08
6.8805e-06
-2.69141e-08
6.90712e-06
-2.6616e-08
6.93344e-06
-2.63169e-08
6.95945e-06
-2.60167e-08
6.98517e-06
-2.57154e-08
7.01058e-06
-2.5413e-08
7.03569e-06
-2.51092e-08
7.0605e-06
-2.48041e-08
7.08499e-06
-2.44975e-08
7.10918e-06
-2.41893e-08
7.13306e-06
-2.38795e-08
7.15663e-06
-2.35679e-08
7.17988e-06
-2.32544e-08
7.20282e-06
-2.29389e-08
7.22544e-06
-2.26214e-08
7.24775e-06
-2.23016e-08
7.26973e-06
-2.19795e-08
7.29138e-06
-2.16549e-08
7.31271e-06
-2.13278e-08
7.33371e-06
-2.09979e-08
7.35437e-06
-2.06653e-08
7.3747e-06
-2.03298e-08
7.39469e-06
-1.99914e-08
7.41434e-06
-1.96498e-08
7.43365e-06
-1.93051e-08
7.45261e-06
-1.89573e-08
7.47121e-06
-1.86062e-08
7.48946e-06
-1.82519e-08
7.50736e-06
-1.78944e-08
7.52489e-06
-1.75339e-08
7.54206e-06
-1.71703e-08
7.55887e-06
-1.68038e-08
7.5753e-06
-1.64348e-08
7.59136e-06
-1.60634e-08
7.60705e-06
-1.56901e-08
7.62237e-06
-1.53152e-08
7.63731e-06
-1.49395e-08
7.65187e-06
-1.45635e-08
7.66606e-06
-1.41881e-08
7.67987e-06
-1.38143e-08
7.69332e-06
-1.34431e-08
7.70639e-06
-1.3076e-08
7.71911e-06
-1.27145e-08
7.73147e-06
-1.23602e-08
7.74348e-06
-1.20153e-08
7.75517e-06
-1.16822e-08
7.76653e-06
-1.13633e-08
7.77759e-06
-1.10617e-08
7.78837e-06
-1.07808e-08
7.7989e-06
-1.05244e-08
7.80919e-06
-1.02968e-08
7.8193e-06
-1.01027e-08
7.82924e-06
-9.94759e-09
7.83908e-06
-9.8374e-09
7.84886e-06
-9.77894e-09
7.85864e-06
-9.77983e-09
7.86849e-06
-9.84874e-09
7.87848e-06
-9.99553e-09
7.88872e-06
-1.02315e-08
7.89929e-06
-1.05699e-08
7.91031e-06
-1.10264e-08
7.92193e-06
-1.16206e-08
7.93431e-06
-1.23769e-08
7.94764e-06
-1.33283e-08
7.96216e-06
-1.45206e-08
7.97818e-06
-1.60219e-08
7.99612e-06
-1.79426e-08
8.01659e-06
-2.0467e-08
8.04047e-06
-2.38835e-08
8.06917e-06
-2.86936e-08
8.10533e-06
-3.61631e-08
8.15387e-06
-4.8538e-08
-6.33242e-08
0.000534128
5.019e-07
0.000534496
1.05974e-06
0.000534671
1.38685e-06
0.000534708
1.5878e-06
0.000534677
1.76478e-06
0.000534594
1.91399e-06
0.000534452
2.03879e-06
0.000534249
2.19978e-06
0.000533979
2.37796e-06
0.000533642
2.55997e-06
0.000533239
2.7554e-06
0.000532764
2.97049e-06
0.000532213
3.2102e-06
0.00053158
3.48056e-06
0.000530858
3.78711e-06
0.000530038
4.13784e-06
0.000529109
4.53992e-06
0.000528058
5.00787e-06
0.000526867
5.54887e-06
0.000525518
6.18525e-06
0.000523987
6.92519e-06
0.000522248
7.80417e-06
0.000520271
8.83199e-06
0.000518007
1.00733e-05
0.000515403
1.15713e-05
0.000512397
1.33726e-05
0.000508914
1.55512e-05
0.000504855
1.82021e-05
0.000500103
2.14404e-05
0.000494444
2.53964e-05
0.000487863
3.0267e-05
0.000480412
3.6011e-05
0.000471627
4.21338e-05
0.000460851
4.88646e-05
0.000447055
5.36265e-05
0.000427794
5.6047e-05
0.000402861
5.45259e-05
0.000373261
5.06488e-05
0.00034174
4.55332e-05
0.000311396
3.9949e-05
0.0002845
3.42183e-05
0.00026197
2.86665e-05
0.000243652
2.36026e-05
0.000228682
1.94878e-05
0.000216163
1.63515e-05
0.0002054
1.40591e-05
0.000195986
1.23091e-05
0.000187697
1.08675e-05
0.00018038
9.618e-06
0.000173891
8.54241e-06
0.000168088
7.64825e-06
0.000162861
6.89997e-06
0.000158132
6.25398e-06
0.000153842
5.68171e-06
0.000149943
5.16886e-06
0.000146391
4.71338e-06
0.000143145
4.30773e-06
0.000140177
3.94164e-06
0.000137461
3.60885e-06
0.000134973
3.30628e-06
0.000132692
3.03163e-06
0.000130601
2.78044e-06
0.000128685
2.54788e-06
0.000126932
2.33102e-06
0.000125332
2.12867e-06
0.000123872
1.94038e-06
0.000122544
1.76511e-06
0.000121339
1.60098e-06
0.00012025
1.44616e-06
0.000119271
1.29941e-06
0.000118396
1.16005e-06
0.00011762
1.0276e-06
0.000116939
9.01377e-07
0.000116347
7.80687e-07
0.000115842
6.64999e-07
0.00011542
5.53865e-07
0.000115077
4.4694e-07
0.000114811
3.44006e-07
0.000114619
2.44693e-07
0.000114498
1.48975e-07
0.000114447
5.63753e-08
0.000114461
-3.29831e-08
0.00011454
-1.18988e-07
0.000114683
-2.04129e-07
0.000114887
-2.8753e-07
0.000115151
-3.69034e-07
0.000115475
-4.48588e-07
0.000115856
-5.26166e-07
0.000116294
-6.01798e-07
0.000116786
-6.75544e-07
0.000117331
-7.47448e-07
0.000117929
-8.17504e-07
0.000118577
-8.85667e-07
0.000119274
-9.51853e-07
0.000120018
-1.01592e-06
0.000120809
-1.07769e-06
0.000121644
-1.13696e-06
0.00012252
-1.19356e-06
0.000123437
-1.24734e-06
0.000124392
-1.29813e-06
0.000125382
-1.34577e-06
0.000126405
-1.39007e-06
0.000127459
-1.43082e-06
0.00012854
-1.4678e-06
0.000129646
-1.50076e-06
0.000130774
-1.52941e-06
0.00013192
-1.55347e-06
0.000133081
-1.57263e-06
0.000134253
-1.5866e-06
0.000135432
-1.59507e-06
0.000136614
-1.59774e-06
0.000137793
-1.59432e-06
0.000138967
-1.58454e-06
0.000140129
-1.56815e-06
0.000141275
-1.54492e-06
0.000142399
-1.51458e-06
0.000143497
-1.47693e-06
0.000144562
-1.43175e-06
0.00014559
-1.37889e-06
0.000146573
-1.3182e-06
0.000147507
-1.24958e-06
0.000148386
-1.17296e-06
0.000149204
-1.08831e-06
0.000149954
-9.95638e-07
0.000150631
-8.9499e-07
0.000151229
-7.86473e-07
0.000151743
-6.70248e-07
0.000152166
-5.46553e-07
0.000152494
-4.15704e-07
0.000152722
-2.78148e-07
0.000152845
-1.34525e-07
0.000152858
1.42657e-08
0.000152759
1.68228e-07
0.000152543
3.27945e-07
0.000152206
4.91928e-07
0.000151747
6.59518e-07
0.000151163
8.29236e-07
0.000150451
1.00116e-06
0.000149613
1.17446e-06
0.000148645
1.34843e-06
0.00014755
1.52231e-06
0.000146326
1.6953e-06
0.000144976
1.86664e-06
0.000143501
2.03557e-06
0.000141902
2.20133e-06
0.000140184
2.36317e-06
0.000138349
2.52036e-06
0.0001364
2.6722e-06
0.000134343
2.81802e-06
0.000132182
2.95718e-06
0.000129922
3.0891e-06
0.00012757
3.21326e-06
0.00012513
3.32915e-06
0.000122609
3.43637e-06
0.000120015
3.53455e-06
0.000117353
3.62338e-06
0.000114631
3.70263e-06
0.000111856
3.77212e-06
0.000109035
3.83174e-06
0.000106176
3.88143e-06
0.000103285
3.92118e-06
0.000100371
3.95101e-06
9.74398e-05
3.97097e-06
9.44993e-05
3.9811e-06
9.15561e-05
3.98147e-06
8.86169e-05
3.97233e-06
8.56873e-05
3.95456e-06
8.27728e-05
3.93047e-06
7.98783e-05
3.90258e-06
7.70114e-05
3.87007e-06
7.41784e-05
3.83311e-06
7.13839e-05
3.78643e-06
6.86314e-05
3.72299e-06
6.59247e-05
3.64778e-06
6.32685e-05
3.5704e-06
6.06675e-05
3.49248e-06
5.81251e-05
3.41321e-06
5.56431e-05
3.33272e-06
5.32233e-05
3.24936e-06
5.08673e-05
3.16263e-06
4.85771e-05
3.0734e-06
4.63546e-05
2.98215e-06
4.42006e-05
2.88888e-06
4.2116e-05
2.79414e-06
4.01017e-05
2.69876e-06
3.8158e-05
2.60302e-06
3.62849e-05
2.50724e-06
3.44824e-05
2.41172e-06
3.275e-05
2.31674e-06
3.10873e-05
2.22259e-06
2.94936e-05
2.12949e-06
2.79678e-05
2.03768e-06
2.6509e-05
1.94736e-06
2.51159e-05
1.8587e-06
2.37873e-05
1.77186e-06
2.25217e-05
1.68699e-06
2.13177e-05
1.6042e-06
2.01736e-05
1.52359e-06
1.90878e-05
1.44525e-06
1.80585e-05
1.36925e-06
1.70841e-05
1.29563e-06
1.61628e-05
1.22444e-06
1.52927e-05
1.1557e-06
1.4472e-05
1.08942e-06
1.3699e-05
1.0256e-06
1.29718e-05
9.64241e-07
1.22887e-05
9.05314e-07
1.16478e-05
8.48794e-07
1.10474e-05
7.94645e-07
1.04858e-05
7.42826e-07
9.96127e-06
6.93289e-07
9.47217e-06
6.4598e-07
9.01691e-06
6.00843e-07
8.5939e-06
5.57816e-07
8.20163e-06
5.16836e-07
7.83862e-06
4.77837e-07
7.50346e-06
4.4075e-07
7.19476e-06
4.05508e-07
6.91122e-06
3.7204e-07
6.65155e-06
3.40276e-07
6.41454e-06
3.10147e-07
6.19902e-06
2.81583e-07
6.00387e-06
2.54516e-07
5.82802e-06
2.28879e-07
5.67046e-06
2.04605e-07
5.5302e-06
1.81629e-07
5.40634e-06
1.59891e-07
5.29797e-06
1.39328e-07
5.20428e-06
1.19881e-07
5.12445e-06
1.01495e-07
5.05775e-06
8.41156e-08
5.00344e-06
6.76845e-08
4.96086e-06
5.21607e-08
4.92936e-06
3.74912e-08
4.90833e-06
2.36303e-08
4.8972e-06
1.05345e-08
4.89543e-06
-1.8363e-09
4.90248e-06
-1.35218e-08
4.91789e-06
-2.45616e-08
4.94118e-06
-3.49916e-08
4.97193e-06
-4.48451e-08
5.00972e-06
-5.41537e-08
5.05417e-06
-6.29473e-08
5.1049e-06
-7.12538e-08
5.16158e-06
-7.90997e-08
5.22386e-06
-8.65096e-08
5.29144e-06
-9.35068e-08
5.36403e-06
-1.00113e-07
5.44134e-06
-1.06349e-07
5.52311e-06
-1.12234e-07
5.60908e-06
-1.17786e-07
5.69902e-06
-1.23023e-07
5.79271e-06
-1.27959e-07
5.88992e-06
-1.32611e-07
5.99045e-06
-1.36992e-07
6.09411e-06
-1.41117e-07
6.20072e-06
-1.44997e-07
6.31009e-06
-1.48644e-07
6.42206e-06
-1.52071e-07
6.53647e-06
-1.55286e-07
6.65318e-06
-1.58302e-07
6.77203e-06
-1.61126e-07
6.89289e-06
-1.63767e-07
7.01562e-06
-1.66235e-07
7.14011e-06
-1.68537e-07
7.26622e-06
-1.7068e-07
7.39385e-06
-1.7267e-07
7.52289e-06
-1.74513e-07
7.65322e-06
-1.76213e-07
7.78475e-06
-1.77769e-07
7.91736e-06
-1.79191e-07
8.05098e-06
-1.80499e-07
8.18552e-06
-1.81701e-07
8.3209e-06
-1.82796e-07
8.45704e-06
-1.83788e-07
8.59388e-06
-1.8468e-07
8.73132e-06
-1.85475e-07
8.86931e-06
-1.86179e-07
9.00779e-06
-1.86794e-07
9.14667e-06
-1.87326e-07
9.28592e-06
-1.87776e-07
9.42546e-06
-1.8815e-07
9.56524e-06
-1.8845e-07
9.70521e-06
-1.8868e-07
9.84532e-06
-1.88843e-07
9.98552e-06
-1.88941e-07
1.01258e-05
-1.88978e-07
1.0266e-05
-1.88957e-07
1.04062e-05
-1.88879e-07
1.05463e-05
-1.88748e-07
1.06863e-05
-1.88566e-07
1.08262e-05
-1.88335e-07
1.09658e-05
-1.88058e-07
1.11052e-05
-1.87736e-07
1.12444e-05
-1.87372e-07
1.13833e-05
-1.86968e-07
1.15218e-05
-1.86525e-07
1.16601e-05
-1.86046e-07
1.17979e-05
-1.85532e-07
1.19353e-05
-1.84984e-07
1.20724e-05
-1.84405e-07
1.2209e-05
-1.83795e-07
1.23451e-05
-1.83157e-07
1.24807e-05
-1.82492e-07
1.26158e-05
-1.818e-07
1.27504e-05
-1.81084e-07
1.28845e-05
-1.80345e-07
1.3018e-05
-1.79583e-07
1.31509e-05
-1.788e-07
1.32833e-05
-1.77997e-07
1.3415e-05
-1.77175e-07
1.35461e-05
-1.76335e-07
1.36766e-05
-1.75478e-07
1.38065e-05
-1.74605e-07
1.39357e-05
-1.73716e-07
1.40642e-05
-1.72813e-07
1.41921e-05
-1.71896e-07
1.43192e-05
-1.70966e-07
1.44457e-05
-1.70024e-07
1.45715e-05
-1.69069e-07
1.46966e-05
-1.68103e-07
1.48209e-05
-1.67126e-07
1.49445e-05
-1.66136e-07
1.50674e-05
-1.65134e-07
1.51895e-05
-1.64117e-07
1.53109e-05
-1.63085e-07
1.54316e-05
-1.62041e-07
1.55515e-05
-1.61011e-07
1.56706e-05
-1.60067e-07
1.57891e-05
-1.59268e-07
1.59067e-05
-1.58334e-07
1.60236e-05
-1.57127e-07
1.61396e-05
-1.55847e-07
1.62549e-05
-1.54727e-07
1.63694e-05
-1.5368e-07
1.6483e-05
-1.52643e-07
1.65959e-05
-1.51596e-07
1.6708e-05
-1.50537e-07
1.68193e-05
-1.4947e-07
1.69298e-05
-1.48395e-07
1.70395e-05
-1.47316e-07
1.71484e-05
-1.46233e-07
1.72565e-05
-1.45147e-07
1.73638e-05
-1.44059e-07
1.74703e-05
-1.42968e-07
1.7576e-05
-1.41877e-07
1.76808e-05
-1.40783e-07
1.77849e-05
-1.39689e-07
1.78881e-05
-1.38594e-07
1.79906e-05
-1.37498e-07
1.80922e-05
-1.36401e-07
1.8193e-05
-1.35304e-07
1.8293e-05
-1.34206e-07
1.83922e-05
-1.33108e-07
1.84905e-05
-1.32008e-07
1.85881e-05
-1.30907e-07
1.86848e-05
-1.29803e-07
1.87807e-05
-1.28693e-07
1.88758e-05
-1.27571e-07
1.897e-05
-1.26423e-07
1.90634e-05
-1.25259e-07
1.91559e-05
-1.24109e-07
1.92476e-05
-1.22979e-07
1.93384e-05
-1.21855e-07
1.94284e-05
-1.20733e-07
1.95176e-05
-1.1961e-07
1.96059e-05
-1.18487e-07
1.96934e-05
-1.17361e-07
1.97801e-05
-1.16233e-07
1.98659e-05
-1.15103e-07
1.99509e-05
-1.13971e-07
2.00351e-05
-1.12837e-07
2.01184e-05
-1.117e-07
2.02009e-05
-1.10561e-07
2.02825e-05
-1.09419e-07
2.03632e-05
-1.08273e-07
2.04432e-05
-1.07125e-07
2.05222e-05
-1.05974e-07
2.06004e-05
-1.04819e-07
2.06778e-05
-1.0366e-07
2.07542e-05
-1.02497e-07
2.08299e-05
-1.01329e-07
2.09046e-05
-1.00157e-07
2.09785e-05
-9.89805e-08
2.10515e-05
-9.77983e-08
2.11236e-05
-9.66105e-08
2.11948e-05
-9.54167e-08
2.12651e-05
-9.42165e-08
2.13346e-05
-9.30096e-08
2.14031e-05
-9.17955e-08
2.14708e-05
-9.05739e-08
2.15375e-05
-8.93442e-08
2.16033e-05
-8.81062e-08
2.16682e-05
-8.68593e-08
2.17321e-05
-8.56032e-08
2.17951e-05
-8.43374e-08
2.18572e-05
-8.30615e-08
2.19183e-05
-8.17751e-08
2.19784e-05
-8.0478e-08
2.20376e-05
-7.91697e-08
2.20958e-05
-7.78499e-08
2.2153e-05
-7.65186e-08
2.22093e-05
-7.51754e-08
2.22645e-05
-7.38204e-08
2.23187e-05
-7.24536e-08
2.23719e-05
-7.10752e-08
2.2424e-05
-6.96855e-08
2.24751e-05
-6.82849e-08
2.25252e-05
-6.68743e-08
2.25742e-05
-6.54544e-08
2.26222e-05
-6.40265e-08
2.26691e-05
-6.25921e-08
2.27149e-05
-6.1153e-08
2.27597e-05
-5.97115e-08
2.28034e-05
-5.82703e-08
2.2846e-05
-5.68325e-08
2.28876e-05
-5.54019e-08
2.29282e-05
-5.39829e-08
2.29677e-05
-5.25807e-08
2.30062e-05
-5.1201e-08
2.30436e-05
-4.98507e-08
2.30802e-05
-4.85375e-08
2.31158e-05
-4.72701e-08
2.31504e-05
-4.60584e-08
2.31843e-05
-4.49138e-08
2.32174e-05
-4.38487e-08
2.32497e-05
-4.28774e-08
2.32814e-05
-4.20156e-08
2.33126e-05
-4.1281e-08
2.33434e-05
-4.06934e-08
2.33738e-05
-4.02748e-08
2.34041e-05
-4.00496e-08
2.34343e-05
-4.00452e-08
2.34648e-05
-4.02926e-08
2.34956e-05
-4.08265e-08
2.35271e-05
-4.16864e-08
2.35594e-05
-4.2918e-08
2.3593e-05
-4.45745e-08
2.36281e-05
-4.67202e-08
2.36651e-05
-4.9434e-08
2.37046e-05
-5.28169e-08
2.37471e-05
-5.70019e-08
2.37932e-05
-6.21724e-08
2.38439e-05
-6.85905e-08
2.39001e-05
-7.66355e-08
2.3963e-05
-8.68268e-08
2.40342e-05
-9.98822e-08
2.4115e-05
-1.16955e-07
2.4205e-05
-1.38605e-07
-1.58139e-07
0.00053353
3.0573e-07
0.000533719
8.69841e-07
0.000533879
1.22718e-06
0.000533991
1.47635e-06
0.000534042
1.71281e-06
0.000534036
1.92014e-06
0.000533967
2.10851e-06
0.000533844
2.32234e-06
0.000533677
2.54511e-06
0.000533459
2.77813e-06
0.000533188
3.02639e-06
0.000532862
3.29615e-06
0.000532479
3.59322e-06
0.000532036
3.92374e-06
0.000531529
4.29446e-06
0.000530953
4.7134e-06
0.000530304
5.18939e-06
0.000529577
5.73408e-06
0.000528766
6.35987e-06
0.000527868
7.08363e-06
0.00052687
7.92295e-06
0.00052577
8.90473e-06
0.000524546
1.0056e-05
0.000523214
1.14046e-05
0.000521795
1.29905e-05
0.000520293
1.48745e-05
0.000518726
1.71185e-05
0.000517137
1.97907e-05
0.000515609
2.29684e-05
0.00051428
2.67258e-05
0.000513441
3.11059e-05
0.00051336
3.60919e-05
0.000514028
4.14658e-05
0.000515694
4.71983e-05
0.000517262
5.20592e-05
0.000517278
5.60301e-05
0.000514401
5.74031e-05
0.000507844
5.72056e-05
0.00049748
5.58981e-05
0.000483143
5.42851e-05
0.000464997
5.2365e-05
0.000443692
4.99717e-05
0.000420506
4.67884e-05
0.000396874
4.31193e-05
0.000374173
3.90532e-05
0.000353439
3.47927e-05
0.000335094
3.0654e-05
0.000319173
2.67883e-05
0.000305336
2.34557e-05
0.000293174
2.07042e-05
0.000282351
1.84717e-05
0.000272657
1.65934e-05
0.000263949
1.4962e-05
0.000256106
1.3525e-05
0.000249021
1.22538e-05
0.000242591
1.11432e-05
0.000236737
1.01622e-05
0.000231398
9.27982e-06
0.000226527
8.47986e-06
0.000222078
7.75539e-06
0.000218008
7.10184e-06
0.000214281
6.50748e-06
0.00021087
5.95932e-06
0.000207751
5.4498e-06
0.000204903
4.97605e-06
0.000202307
4.53717e-06
0.000199941
4.1304e-06
0.000197792
3.75062e-06
0.000195845
3.39326e-06
0.000194089
3.05538e-06
0.000192513
2.73532e-06
0.000191109
2.43199e-06
0.000189866
2.14402e-06
0.000188777
1.86974e-06
0.000187835
1.60751e-06
0.000187033
1.356e-06
0.000186365
1.11428e-06
0.000185828
8.81714e-07
0.000185415
6.57746e-07
0.000185122
4.41903e-07
0.000184944
2.33654e-07
0.000184878
3.29982e-08
0.00018492
-1.60655e-07
0.000185066
-3.50226e-07
0.000185315
-5.36116e-07
0.000185663
-7.17659e-07
0.000186109
-8.94626e-07
0.00018665
-1.06701e-06
0.000187283
-1.23493e-06
0.000188006
-1.39855e-06
0.000188817
-1.558e-06
0.000189713
-1.71331e-06
0.000190692
-1.86445e-06
0.000191751
-2.01127e-06
0.000192889
-2.15348e-06
0.000194102
-2.2907e-06
0.000195387
-2.42255e-06
0.000196742
-2.54863e-06
0.000198163
-2.66862e-06
0.000199648
-2.78219e-06
0.000201191
-2.88901e-06
0.000202789
-2.98869e-06
0.000204439
-3.08079e-06
0.000206136
-3.16486e-06
0.000207876
-3.24037e-06
0.000209653
-3.30676e-06
0.000211463
-3.36339e-06
0.0002133
-3.4096e-06
0.000215158
-3.44477e-06
0.000217032
-3.46825e-06
0.000218913
-3.47943e-06
0.000220797
-3.47766e-06
0.000222674
-3.46231e-06
0.000224539
-3.43285e-06
0.000226383
-3.38874e-06
0.000228198
-3.32948e-06
0.000229975
-3.25455e-06
0.000231707
-3.16352e-06
0.000233384
-3.05599e-06
0.000234998
-2.93164e-06
0.000236538
-2.7902e-06
0.000237997
-2.63151e-06
0.000239364
-2.45544e-06
0.00024063
-2.26198e-06
0.000241787
-2.05119e-06
0.000242823
-1.82325e-06
0.000243732
-1.57847e-06
0.000244502
-1.31727e-06
0.000245127
-1.04029e-06
0.000245597
-7.484e-07
0.000245905
-4.42805e-07
0.000246045
-1.25066e-07
0.000246009
2.03997e-07
0.000245791
5.45509e-07
0.000245386
8.97487e-07
0.000244788
1.25763e-06
0.000243993
1.62422e-06
0.000242998
1.99605e-06
0.000241801
2.37164e-06
0.0002404
2.74943e-06
0.000238794
3.12782e-06
0.000236984
3.50516e-06
0.000234971
3.87977e-06
0.000232757
4.25e-06
0.000230344
4.61418e-06
0.000227736
4.97066e-06
0.000224939
5.31784e-06
0.000221957
5.65417e-06
0.000218797
5.97815e-06
0.000215466
6.28838e-06
0.000211971
6.58352e-06
0.000208322
6.86237e-06
0.000204527
7.12382e-06
0.000200597
7.36688e-06
0.000196541
7.59071e-06
0.00019237
7.79458e-06
0.000188094
7.9779e-06
0.000183726
8.14024e-06
0.000179277
8.28126e-06
0.000174757
8.4008e-06
0.00017018
8.49879e-06
0.000165555
8.57529e-06
0.000160896
8.63046e-06
0.000156212
8.66458e-06
0.000151516
8.67809e-06
0.000146816
8.67173e-06
0.000142124
8.64677e-06
0.000137449
8.60515e-06
0.000132803
8.54859e-06
0.000128197
8.47703e-06
0.000123639
8.39053e-06
0.000119139
8.28686e-06
0.000114698
8.16352e-06
0.000110322
8.02369e-06
0.00010602
7.87305e-06
0.000101798
7.71398e-06
9.76639e-05
7.54737e-06
9.36226e-05
7.37407e-06
8.9678e-05
7.19398e-06
8.58332e-05
7.0074e-06
8.20914e-05
6.81518e-06
7.84554e-05
6.61819e-06
7.49271e-05
6.41719e-06
7.15081e-05
6.21309e-06
6.82e-05
6.00692e-06
6.50035e-05
5.79949e-06
6.19192e-05
5.59155e-06
5.89471e-05
5.3838e-06
5.6087e-05
5.17688e-06
5.33381e-05
4.97141e-06
5.06997e-05
4.76792e-06
4.81704e-05
4.56694e-06
4.57489e-05
4.36891e-06
4.34333e-05
4.17426e-06
4.12218e-05
3.98335e-06
3.91123e-05
3.7965e-06
3.71025e-05
3.61399e-06
3.51901e-05
3.43607e-06
3.33724e-05
3.26294e-06
3.16468e-05
3.09477e-06
3.00108e-05
2.93168e-06
2.84614e-05
2.77379e-06
2.6996e-05
2.62115e-06
2.56116e-05
2.47382e-06
2.43054e-05
2.3318e-06
2.30746e-05
2.19509e-06
2.19162e-05
2.06366e-06
2.08275e-05
1.93746e-06
1.98058e-05
1.81643e-06
1.88481e-05
1.70049e-06
1.79518e-05
1.58953e-06
1.71144e-05
1.48346e-06
1.63331e-05
1.38215e-06
1.56054e-05
1.28548e-06
1.49289e-05
1.19332e-06
1.43012e-05
1.10553e-06
1.372e-05
1.02196e-06
1.3183e-05
9.42477e-07
1.26881e-05
8.6692e-07
1.22333e-05
7.95144e-07
1.18164e-05
7.26999e-07
1.14357e-05
6.62338e-07
1.10892e-05
6.01011e-07
1.07752e-05
5.42873e-07
1.0492e-05
4.87781e-07
1.0238e-05
4.35596e-07
1.00117e-05
3.86179e-07
9.81168e-06
3.39399e-07
9.63643e-06
2.95127e-07
9.48469e-06
2.53238e-07
9.35519e-06
2.13612e-07
9.24674e-06
1.76133e-07
9.15821e-06
1.40692e-07
9.08852e-06
1.07181e-07
9.03665e-06
7.55004e-08
9.00164e-06
4.5552e-08
8.98255e-06
1.72451e-08
8.97854e-06
-9.50803e-09
8.98877e-06
-3.47933e-08
9.01247e-06
-5.86929e-08
9.04891e-06
-8.12818e-08
9.09739e-06
-1.0263e-07
9.15725e-06
-1.22805e-07
9.22786e-06
-1.4187e-07
9.30865e-06
-1.59884e-07
9.39904e-06
-1.76903e-07
9.49851e-06
-1.9298e-07
9.60657e-06
-2.08165e-07
9.72272e-06
-2.22503e-07
9.84652e-06
-2.36039e-07
9.97755e-06
-2.48815e-07
1.01154e-05
-2.60869e-07
1.02597e-05
-2.72237e-07
1.041e-05
-2.82954e-07
1.05661e-05
-2.93054e-07
1.07275e-05
-3.02565e-07
1.08941e-05
-3.11518e-07
1.10653e-05
-3.19939e-07
1.12411e-05
-3.27855e-07
1.14211e-05
-3.35289e-07
1.16051e-05
-3.42265e-07
1.17928e-05
-3.48804e-07
1.19839e-05
-3.54926e-07
1.21784e-05
-3.60651e-07
1.23758e-05
-3.65997e-07
1.25761e-05
-3.70979e-07
1.27791e-05
-3.75613e-07
1.29845e-05
-3.79911e-07
1.31921e-05
-3.83886e-07
1.34019e-05
-3.87543e-07
1.36136e-05
-3.90902e-07
1.38271e-05
-3.93994e-07
1.40422e-05
-3.96835e-07
1.42589e-05
-3.99433e-07
1.44769e-05
-4.01794e-07
1.46961e-05
-4.03928e-07
1.49165e-05
-4.05843e-07
1.51379e-05
-4.0755e-07
1.53601e-05
-4.09057e-07
1.55832e-05
-4.10372e-07
1.58069e-05
-4.11505e-07
1.60312e-05
-4.12463e-07
1.6256e-05
-4.13254e-07
1.64812e-05
-4.13885e-07
1.67067e-05
-4.14364e-07
1.69325e-05
-4.14696e-07
1.71584e-05
-4.1489e-07
1.73844e-05
-4.1495e-07
1.76104e-05
-4.14884e-07
1.78364e-05
-4.14696e-07
1.80622e-05
-4.14392e-07
1.82878e-05
-4.13977e-07
1.85132e-05
-4.13457e-07
1.87383e-05
-4.12837e-07
1.89631e-05
-4.1212e-07
1.91874e-05
-4.11312e-07
1.94113e-05
-4.10416e-07
1.96347e-05
-4.09438e-07
1.98576e-05