/*--------------------------------*- C++ -*----------------------------------*\
| =========                 |                                                 |
| \\      /  F ield         | foam-extend: Open Source CFD                    |
|  \\    /   O peration     | Version:     4.1                                |
|   \\  /    A nd           | Web:         http://www.foam-extend.org         |
|    \\/     M anipulation  |                                                 |
\*---------------------------------------------------------------------------*/
FoamFile
{
    version     2.0;
    format      ascii;
    class       volVectorField;
    location    "15";
    object      U;
}
// * * * * * * * * * * * * * * * * * * * * * * * * * * * * * * * * * * * * * //

dimensions      [0 1 -1 0 0 0 0];

internalField   nonuniform List<vector> 
67500
(
(0.9967 2.19073e-06 0)
(0.995662 0.000722352 0)
(0.99367 0.00119038 0)
(0.990689 0.00151671 0)
(0.987363 0.0017142 0)
(0.983982 0.00181103 0)
(0.980487 0.0020357 0)
(0.976846 0.00226525 0)
(0.97301 0.0024706 0)
(0.968956 0.00266285 0)
(0.96467 0.00285699 0)
(0.960132 0.003063 0)
(0.955308 0.00328812 0)
(0.950158 0.00353925 0)
(0.94463 0.00382416 0)
(0.938664 0.00415146 0)
(0.932188 0.00453083 0)
(0.925118 0.00497207 0)
(0.917352 0.00548909 0)
(0.908769 0.00609712 0)
(0.899222 0.00681793 0)
(0.888532 0.00767453 0)
(0.876486 0.00870111 0)
(0.86282 0.00993884 0)
(0.847199 0.01144 0)
(0.829209 0.0132701 0)
(0.808348 0.0155253 0)
(0.784 0.0183255 0)
(0.755384 0.021873 0)
(0.721664 0.0261319 0)
(0.681366 0.0327428 0)
(0.634994 0.0357296 0)
(0.57172 0.0405115 0)
(0.504722 0.0554673 0)
(0.430196 0.0616291 0)
(0.3555 0.0539468 0)
(0.293158 0.0375128 0)
(0.247114 0.0206718 0)
(0.216099 0.0103158 0)
(0.194654 0.00647104 0)
(0.179059 0.00551758 0)
(0.166558 0.00546102 0)
(0.155937 0.00529183 0)
(0.146813 0.00483087 0)
(0.139054 0.00428776 0)
(0.132433 0.00384199 0)
(0.126668 0.00350729 0)
(0.12156 0.00322668 0)
(0.117004 0.00296156 0)
(0.112939 0.00271115 0)
(0.1093 0.00248864 0)
(0.106013 0.00229588 0)
(0.103024 0.00212851 0)
(0.100297 0.00198096 0)
(0.0978072 0.00184874 0)
(0.0955337 0.00173067 0)
(0.093454 0.00162516 0)
(0.0915492 0.00153004 0)
(0.0898034 0.0014437 0)
(0.0882026 0.00136514 0)
(0.0867339 0.00129358 0)
(0.0853857 0.00122795 0)
(0.0841488 0.00116722 0)
(0.083016 0.00111079 0)
(0.0819808 0.00105841 0)
(0.0810368 0.0010099 0)
(0.0801777 0.000964996 0)
(0.0793979 0.000923541 0)
(0.0786929 0.000884886 0)
(0.0780588 0.000848604 0)
(0.077492 0.000814512 0)
(0.0769893 0.000782499 0)
(0.0765477 0.000752338 0)
(0.0761646 0.000723592 0)
(0.0758379 0.000696196 0)
(0.0755654 0.000670212 0)
(0.0753449 0.000645559 0)
(0.0751744 0.000622133 0)
(0.0750523 0.000599778 0)
(0.0749766 0.000578452 0)
(0.074946 0.000557932 0)
(0.0749591 0.000538218 0)
(0.0750138 0.000519404 0)
(0.0751095 0.000501058 0)
(0.0752459 0.000483303 0)
(0.0754221 0.000466241 0)
(0.0756373 0.000449862 0)
(0.0758905 0.000434102 0)
(0.0761807 0.000418988 0)
(0.0765071 0.000404487 0)
(0.0768687 0.000390571 0)
(0.0772646 0.000377256 0)
(0.0776941 0.000364546 0)
(0.078156 0.000352444 0)
(0.0786494 0.000340964 0)
(0.0791732 0.000330127 0)
(0.0797261 0.000319955 0)
(0.080307 0.000310461 0)
(0.0809144 0.000301657 0)
(0.0815468 0.000293551 0)
(0.0822027 0.00028616 0)
(0.0828805 0.000279503 0)
(0.0835784 0.000273601 0)
(0.0842947 0.00026848 0)
(0.0850272 0.000264167 0)
(0.085774 0.000260693 0)
(0.0865328 0.000258088 0)
(0.0873011 0.000256383 0)
(0.0880765 0.000255605 0)
(0.0888562 0.000255783 0)
(0.0896373 0.000256943 0)
(0.0904169 0.000259098 0)
(0.0911917 0.000262253 0)
(0.0919586 0.000266416 0)
(0.0927141 0.000271599 0)
(0.0934548 0.000277809 0)
(0.094177 0.000285043 0)
(0.094877 0.000293293 0)
(0.095551 0.000302545 0)
(0.0961951 0.000312775 0)
(0.0968053 0.000323954 0)
(0.0973778 0.000336048 0)
(0.0979085 0.000349013 0)
(0.0983934 0.0003628 0)
(0.0988286 0.000377355 0)
(0.0992102 0.000392611 0)
(0.0995344 0.000408489 0)
(0.0997974 0.000424876 0)
(0.0999958 0.000441729 0)
(0.100126 0.00045893 0)
(0.100185 0.0004763 0)
(0.100171 0.000493702 0)
(0.100081 0.000511179 0)
(0.0999115 0.000528691 0)
(0.0996614 0.000546053 0)
(0.0993284 0.000562932 0)
(0.0989116 0.000579262 0)
(0.0984104 0.000595337 0)
(0.097824 0.000611027 0)
(0.0971519 0.000626131 0)
(0.0963944 0.000640557 0)
(0.0955518 0.000654216 0)
(0.094625 0.000667039 0)
(0.0936154 0.000678972 0)
(0.0925245 0.000689978 0)
(0.0913543 0.000699954 0)
(0.0901071 0.000708841 0)
(0.0887856 0.000716588 0)
(0.087393 0.000723155 0)
(0.0859324 0.000728508 -8.69702e-37)
(0.0844075 0.000732619 8.62754e-37)
(0.0828223 0.000735472 0)
(0.0811807 0.000737057 0)
(0.0794872 0.000737371 0)
(0.0777462 0.000736421 0)
(0.0759623 0.000734221 0)
(0.0741404 0.000730791 0)
(0.0722852 0.00072616 0)
(0.0704017 0.000720358 0)
(0.0684947 0.000713422 0)
(0.0665691 0.000705383 0)
(0.0646299 0.000696258 0)
(0.0626819 0.00068603 0)
(0.0607303 0.000674621 0)
(0.0587801 0.000661934 0)
(0.0568377 0.000648303 0)
(0.0549084 0.000637604 0)
(0.0529843 0.000656567 0)
(0.0510489 0.000758387 0)
(0.0491309 0.00091279 0)
(0.0472507 0.00111354 0)
(0.045446 0.00123875 0)
(0.043683 0.00112936 0)
(0.0419015 0.000883457 0)
(0.0401356 0.000686881 0)
(0.0384135 0.000558703 0)
(0.0367413 0.000484582 0)
(0.0351269 0.000461571 0)
(0.0335522 0.000445445 0)
(0.032018 0.000427845 0)
(0.0305271 0.000412985 0)
(0.0290804 0.000400198 0)
(0.0276792 0.000384638 0)
(0.0263249 0.000367202 0)
(0.0250179 0.000351471 0)
(0.0237582 0.000336248 0)
(0.0225456 0.000321354 0)
(0.02138 0.000306786 0)
(0.0202611 0.00029256 0)
(0.0191884 0.000278693 0)
(0.0181614 0.000265201 0)
(0.0171794 0.000252094 0)
(0.0162417 0.000239381 0)
(0.0153474 0.000227067 0)
(0.0144955 0.000215155 0)
(0.0136851 0.000203649 0)
(0.0129152 0.000192549 0)
(0.0121845 0.000181853 0)
(0.011492 0.000171558 0)
(0.0108366 0.000161661 0)
(0.010217 0.000152158 0)
(0.00963198 0.000143041 0)
(0.00908037 0.000134304 0)
(0.00856092 0.00012594 0)
(0.00807242 0.000117939 0)
(0.00761366 0.000110294 0)
(0.00718342 0.000102994 0)
(0.00678051 9.60307e-05 0)
(0.00640377 8.93929e-05 0)
(0.00605205 8.30705e-05 0)
(0.00572422 7.70532e-05 0)
(0.00541918 7.13303e-05 0)
(0.00513588 6.58912e-05 0)
(0.00487326 6.07252e-05 0)
(0.00463034 5.58219e-05 0)
(0.00440613 5.11707e-05 0)
(0.00419971 4.67613e-05 0)
(0.00401017 4.25835e-05 0)
(0.00383665 3.86274e-05 0)
(0.00367831 3.48832e-05 0)
(0.00353436 3.13413e-05 0)
(0.00340405 2.79926e-05 0)
(0.00328663 2.4828e-05 0)
(0.00318142 2.18389e-05 0)
(0.00308776 1.90167e-05 0)
(0.00300502 1.63534e-05 0)
(0.0029326 1.3841e-05 0)
(0.00286993 1.14721e-05 0)
(0.00281649 9.23978e-06 0)
(0.00277174 7.13866e-06 0)
(0.00273522 5.1719e-06 0)
(0.00270646 3.27515e-06 0)
(0.00268504 1.53464e-06 0)
(0.00267054 -1.13114e-07 0)
(0.00266258 -1.66378e-06 0)
(0.00266078 -3.12076e-06 0)
(0.00266481 -4.48881e-06 0)
(0.00267434 -5.77293e-06 0)
(0.00268906 -6.97791e-06 0)
(0.00270868 -8.10807e-06 0)
(0.00273293 -9.16751e-06 0)
(0.00276154 -1.016e-05 0)
(0.00279429 -1.1089e-05 0)
(0.00283092 -1.19579e-05 0)
(0.00287124 -1.27698e-05 0)
(0.00291502 -1.35276e-05 0)
(0.00296209 -1.42342e-05 0)
(0.00301224 -1.48921e-05 0)
(0.00306532 -1.55038e-05 0)
(0.00312115 -1.60714e-05 0)
(0.00317957 -1.65972e-05 0)
(0.00324044 -1.70833e-05 0)
(0.00330362 -1.75313e-05 0)
(0.00336898 -1.79433e-05 0)
(0.00343638 -1.83208e-05 0)
(0.0035057 -1.86654e-05 0)
(0.00357684 -1.89787e-05 0)
(0.00364967 -1.92621e-05 0)
(0.00372411 -1.95168e-05 0)
(0.00380004 -1.97442e-05 0)
(0.00387738 -1.99456e-05 0)
(0.00395603 -2.01219e-05 0)
(0.00403592 -2.02744e-05 0)
(0.00411695 -2.04041e-05 0)
(0.00419904 -2.05119e-05 0)
(0.00428214 -2.05989e-05 0)
(0.00436616 -2.06658e-05 0)
(0.00445103 -2.07131e-05 0)
(0.0045367 -2.07402e-05 0)
(0.00462308 -2.07412e-05 0)
(0.00471012 -2.07194e-05 0)
(0.00479774 -2.06878e-05 0)
(0.00488592 -2.0647e-05 0)
(0.0049746 -2.05926e-05 0)
(0.00506373 -2.05239e-05 0)
(0.00515327 -2.04415e-05 0)
(0.00524316 -2.03459e-05 0)
(0.00533337 -2.02378e-05 0)
(0.00542386 -2.01178e-05 0)
(0.00551458 -1.99864e-05 0)
(0.0056055 -1.98443e-05 0)
(0.00569658 -1.96919e-05 0)
(0.00578779 -1.95298e-05 0)
(0.00587909 -1.93585e-05 0)
(0.00597044 -1.91784e-05 0)
(0.00606183 -1.89901e-05 0)
(0.00615322 -1.87939e-05 0)
(0.00624458 -1.85904e-05 0)
(0.00633589 -1.83799e-05 0)
(0.00642712 -1.81628e-05 0)
(0.00651825 -1.79396e-05 0)
(0.00660925 -1.77107e-05 0)
(0.0067001 -1.74763e-05 0)
(0.00679079 -1.72368e-05 0)
(0.00688128 -1.69927e-05 0)
(0.00697157 -1.67441e-05 0)
(0.00706163 -1.64915e-05 0)
(0.00715145 -1.62352e-05 0)
(0.007241 -1.59754e-05 0)
(0.00733028 -1.57125e-05 0)
(0.00741927 -1.54466e-05 0)
(0.00750796 -1.51781e-05 0)
(0.00759632 -1.49073e-05 0)
(0.00768436 -1.46343e-05 0)
(0.00777204 -1.43595e-05 0)
(0.00785938 -1.40829e-05 0)
(0.00794634 -1.38049e-05 0)
(0.00803293 -1.35257e-05 0)
(0.00811913 -1.32454e-05 0)
(0.00820494 -1.29643e-05 0)
(0.00829034 -1.26825e-05 0)
(0.00837532 -1.24002e-05 0)
(0.00845988 -1.21175e-05 0)
(0.00854401 -1.18347e-05 0)
(0.00862771 -1.15519e-05 0)
(0.00871096 -1.12692e-05 0)
(0.00879376 -1.09867e-05 0)
(0.0088761 -1.07046e-05 0)
(0.00895798 -1.04229e-05 0)
(0.00903939 -1.01418e-05 0)
(0.00912033 -9.86112e-06 0)
(0.00920079 -9.58073e-06 0)
(0.00928076 -9.29992e-06 0)
(0.00936024 -9.01716e-06 0)
(0.00943922 -8.72978e-06 0)
(0.00951767 -8.43556e-06 0)
(0.00959556 -8.14476e-06 0)
(0.00967287 -7.96054e-06 0)
(0.00975001 -8.57717e-06 0)
(0.00982755 -1.22108e-05 0)
(0.00990283 -1.38372e-05 0)
(0.00997774 -1.09345e-05 0)
(0.0100538 -7.09984e-06 0)
(0.0101282 -6.30781e-06 0)
(0.0102019 -6.01929e-06 0)
(0.0102752 -5.78826e-06 0)
(0.010348 -5.55459e-06 0)
(0.0104203 -5.31423e-06 0)
(0.0104922 -5.07032e-06 0)
(0.0105635 -4.82568e-06 0)
(0.0106343 -4.58187e-06 0)
(0.0107045 -4.33965e-06 0)
(0.0107743 -4.09938e-06 0)
(0.0108435 -3.86124e-06 0)
(0.0109121 -3.62533e-06 0)
(0.0109803 -3.39172e-06 0)
(0.0110479 -3.16047e-06 0)
(0.0111149 -2.93163e-06 0)
(0.0111815 -2.70525e-06 0)
(0.0112475 -2.48137e-06 0)
(0.011313 -2.26005e-06 0)
(0.0113779 -2.04132e-06 0)
(0.0114423 -1.82526e-06 0)
(0.0115062 -1.61193e-06 0)
(0.0115696 -1.40142e-06 0)
(0.0116324 -1.19381e-06 0)
(0.0116947 -9.8907e-07 0)
(0.0117564 -7.86544e-07 0)
(0.0118177 -5.82664e-07 0)
(0.0118783 -3.60368e-07 0)
(0.0119384 -1.2759e-07 0)
(0.0119979 8.48276e-08 0)
(0.0120569 2.78933e-07 0)
(0.0121153 4.67971e-07 0)
(0.0121732 6.54639e-07 0)
(0.0122305 8.3931e-07 0)
(0.0122873 1.02189e-06 0)
(0.0123435 1.20222e-06 0)
(0.0123992 1.38018e-06 0)
(0.0124544 1.55567e-06 0)
(0.012509 1.72862e-06 0)
(0.0125631 1.89897e-06 0)
(0.0126166 2.06669e-06 0)
(0.0126695 2.23173e-06 0)
(0.012722 2.39407e-06 0)
(0.0127738 2.55366e-06 0)
(0.0128251 2.71049e-06 0)
(0.0128759 2.86453e-06 0)
(0.012926 3.01575e-06 0)
(0.0129757 3.16413e-06 0)
(0.0130247 3.30964e-06 0)
(0.0130732 3.45226e-06 0)
(0.0131212 3.59196e-06 0)
(0.0131685 3.72871e-06 0)
(0.0132153 3.8625e-06 0)
(0.0132615 3.99328e-06 0)
(0.0133072 4.12103e-06 0)
(0.0133522 4.24572e-06 0)
(0.0133967 4.36732e-06 0)
(0.0134406 4.48578e-06 0)
(0.0134839 4.60108e-06 0)
(0.0135266 4.71318e-06 0)
(0.0135688 4.82203e-06 0)
(0.0136103 4.92758e-06 0)
(0.0136512 5.0298e-06 0)
(0.0136915 5.12862e-06 0)
(0.0137312 5.22399e-06 0)
(0.0137702 5.31584e-06 0)
(0.0138087 5.4041e-06 0)
(0.0138465 5.48869e-06 0)
(0.0138836 5.56951e-06 0)
(0.0139201 5.64647e-06 0)
(0.013956 5.71945e-06 0)
(0.0139912 5.78831e-06 0)
(0.0140258 5.85292e-06 0)
(0.0140597 5.91309e-06 0)
(0.0140929 5.96863e-06 0)
(0.0141254 6.01933e-06 0)
(0.0141573 6.06493e-06 0)
(0.0141884 6.10513e-06 0)
(0.0142189 6.13961e-06 0)
(0.0142487 6.168e-06 0)
(0.0142778 6.18986e-06 0)
(0.0143061 6.2047e-06 0)
(0.0143338 6.21196e-06 0)
(0.0143607 6.21101e-06 0)
(0.014387 6.20113e-06 0)
(0.0144125 6.1815e-06 0)
(0.0144374 6.1512e-06 0)
(0.0144616 6.10918e-06 0)
(0.0144851 6.05426e-06 0)
(0.0145079 5.98511e-06 0)
(0.0145301 5.90024e-06 0)
(0.0145517 5.79797e-06 0)
(0.0145727 5.6764e-06 0)
(0.0145932 5.53344e-06 0)
(0.0146132 5.3667e-06 0)
(0.0146327 5.17355e-06 0)
(0.0146518 4.95101e-06 0)
(0.0146706 4.69578e-06 0)
(0.0146891 4.40413e-06 0)
(0.0147075 4.07186e-06 0)
(0.0147258 3.69423e-06 0)
(0.0147441 3.26579e-06 0)
(0.0147627 2.78033e-06 0)
(0.0147816 2.23063e-06 0)
(0.0148011 1.60812e-06 0)
(0.0148213 9.02328e-07 0)
(0.0148424 1.0007e-07 0)
(0.0148649 -8.1605e-07 0)
(0.0148889 -1.87025e-06 0)
(0.0149149 -3.09864e-06 0)
(0.0149434 -4.55929e-06 0)
(0.014975 -6.3544e-06 0)
(0.0150108 -8.66833e-06 0)
(0.015052 -1.18182e-05 0)
(0.0151001 -1.64287e-05 0)
(0.0151601 -2.40612e-05 0)
(0.0152488 -3.72104e-05 0)
(0.0153595 -5.34078e-05 0)
(1.0003 0.00132207 0)
(1.00168 0.00301924 0)
(1.00253 0.00377106 0)
(1.00258 0.00391554 0)
(1.00256 0.00408052 0)
(1.00247 0.00432805 0)
(1.00228 0.00455693 0)
(1.00195 0.00484201 0)
(1.00149 0.00511709 0)
(1.00092 0.00538997 0)
(1.00023 0.00568397 0)
(0.999411 0.0060145 0)
(0.998452 0.00639067 0)
(0.997345 0.00682373 0)
(0.996077 0.0073221 0)
(0.994632 0.0079035 0)
(0.993002 0.00857471 0)
(0.991152 0.00936716 0)
(0.989058 0.0102822 0)
(0.986686 0.0113759 0)
(0.983998 0.0126381 0)
(0.980947 0.0141644 0)
(0.977481 0.0159275 0)
(0.973526 0.0180779 0)
(0.968995 0.0206842 0)
(0.963776 0.0238299 0)
(0.957743 0.0276305 0)
(0.950741 0.0322372 0)
(0.942572 0.037834 0)
(0.932984 0.0446149 0)
(0.921664 0.0528091 0)
(0.908728 0.0623731 0)
(0.893656 0.0731683 0)
(0.87538 0.0851962 0)
(0.852227 0.092138 0)
(0.821809 0.0936132 0)
(0.780873 0.0874533 0)
(0.729507 0.0748215 0)
(0.671292 0.0595571 0)
(0.611214 0.0452327 0)
(0.556484 0.0338307 0)
(0.510024 0.02539 0)
(0.472285 0.0195725 0)
(0.441563 0.0157193 0)
(0.416136 0.0131698 0)
(0.394541 0.0115342 0)
(0.375741 0.0104158 0)
(0.359219 0.00947783 0)
(0.344658 0.00856864 0)
(0.331781 0.00770505 0)
(0.320315 0.00694488 0)
(0.310017 0.00628894 0)
(0.300713 0.00571504 0)
(0.292282 0.00520297 0)
(0.284628 0.00473989 0)
(0.277662 0.00432507 0)
(0.271304 0.00395366 0)
(0.265492 0.00361873 0)
(0.260174 0.00331516 0)
(0.255305 0.00303963 0)
(0.250844 0.00278944 0)
(0.246753 0.00256007 0)
(0.243003 0.00234699 0)
(0.239568 0.0021476 0)
(0.236429 0.00196096 0)
(0.233565 0.00178684 0)
(0.230956 0.00162435 0)
(0.228585 0.00147176 0)
(0.226437 0.00132745 0)
(0.224501 0.00119033 0)
(0.222765 0.00105988 0)
(0.22122 0.000935674 0)
(0.219856 0.000816662 0)
(0.218664 0.000702192 0)
(0.217638 0.000592186 0)
(0.21677 0.000486498 0)
(0.216054 0.00038491 0)
(0.215485 0.000287301 0)
(0.215057 0.000192974 0)
(0.214765 0.00010243 0)
(0.214605 1.4389e-05 0)
(0.214571 -7.07007e-05 0)
(0.21466 -0.000151444 0)
(0.214868 -0.000232288 0)
(0.215193 -0.000311842 0)
(0.215633 -0.000389654 0)
(0.216185 -0.000465652 0)
(0.216847 -0.000539788 0)
(0.217615 -0.000612088 0)
(0.218487 -0.000682612 0)
(0.219461 -0.000751398 0)
(0.220533 -0.000818416 0)
(0.221701 -0.000883608 0)
(0.222962 -0.000946879 0)
(0.224315 -0.00100808 0)
(0.225755 -0.00106701 0)
(0.227279 -0.00112349 0)
(0.228885 -0.00117734 0)
(0.230567 -0.00122839 0)
(0.232322 -0.00127651 0)
(0.234146 -0.0013215 0)
(0.236035 -0.0013632 0)
(0.237983 -0.00140137 0)
(0.239986 -0.0014358 0)
(0.242039 -0.00146623 0)
(0.244135 -0.00149239 0)
(0.246268 -0.00151397 0)
(0.248433 -0.00153068 0)
(0.250622 -0.00154221 0)
(0.252827 -0.00154829 0)
(0.255042 -0.0015486 0)
(0.257258 -0.00154285 0)
(0.259466 -0.0015308 0)
(0.261658 -0.00151223 0)
(0.263824 -0.00148687 0)
(0.265955 -0.0014545 0)
(0.268041 -0.00141489 0)
(0.270071 -0.00136786 0)
(0.272035 -0.00131327 0)
(0.273923 -0.00125098 0)
(0.275724 -0.0011809 0)
(0.277426 -0.00110299 0)
(0.279019 -0.00101722 0)
(0.280492 -0.000923633 0)
(0.281833 -0.000822283 0)
(0.283031 -0.000713295 0)
(0.284076 -0.00059685 0)
(0.284957 -0.000473208 0)
(0.285664 -0.000342709 0)
(0.286187 -0.000205831 0)
(0.286517 -6.32805e-05 0)
(0.286646 8.3816e-05 0)
(0.286569 0.0002363 0)
(0.286275 0.00039387 0)
(0.285758 0.00055556 0)
(0.285013 0.000720901 0)
(0.284035 0.00088651 0)
(0.282821 0.00105438 0)
(0.281368 0.00122331 0)
(0.279676 0.0013926 0)
(0.277742 0.00156153 0)
(0.275567 0.00172917 0)
(0.273154 0.00189482 0)
(0.270504 0.00205773 0)
(0.267621 0.00221718 0)
(0.264511 0.00237244 0)
(0.261177 0.00252282 0)
(0.257628 0.00266764 0)
(0.253871 0.00280627 0)
(0.249914 0.00293812 8.53932e-37)
(0.245767 0.00306264 -8.47611e-37)
(0.241441 0.00317932 0)
(0.236945 0.00328773 0)
(0.232292 0.00338749 0)
(0.227493 0.00347826 0)
(0.222562 0.00355979 0)
(0.217512 0.00363187 0)
(0.212355 0.00369437 0)
(0.207106 0.0037472 0)
(0.201777 0.00379033 0)
(0.196383 0.00382376 0)
(0.190938 0.00384751 0)
(0.185454 0.00386157 0)
(0.179946 0.00386583 0)
(0.174427 0.00386009 0)
(0.16891 0.0038441 0)
(0.163406 0.00381817 0)
(0.157925 0.00378694 0)
(0.152475 0.0037603 0)
(0.147069 0.00373499 0)
(0.141721 0.00371491 0)
(0.136446 0.00368173 0)
(0.131248 0.00360624 0)
(0.126126 0.00350687 0)
(0.121095 0.00341677 0)
(0.116164 0.00333506 0)
(0.11134 0.00325636 0)
(0.10663 0.00318039 0)
(0.102033 0.0031003 0)
(0.0975552 0.00301578 0)
(0.0931987 0.00292833 0)
(0.0889673 0.00283876 0)
(0.0848638 0.00274722 0)
(0.0808897 0.00265443 0)
(0.0770467 0.00256128 0)
(0.0733359 0.00246796 0)
(0.0697576 0.00237475 0)
(0.0663118 0.00228196 0)
(0.0629981 0.00218986 0)
(0.0598155 0.0020987 0)
(0.0567629 0.00200872 0)
(0.0538388 0.00192012 0)
(0.0510412 0.00183308 0)
(0.0483682 0.00174778 0)
(0.0458172 0.00166434 0)
(0.0433858 0.0015829 0)
(0.0410712 0.00150357 0)
(0.0388706 0.00142643 0)
(0.0367808 0.00135155 0)
(0.0347987 0.001279 0)
(0.0329211 0.00120882 0)
(0.0311446 0.00114103 0)
(0.029466 0.00107565 0)
(0.0278818 0.00101268 0)
(0.0263886 0.000952127 0)
(0.024983 0.000893968 0)
(0.0236616 0.000838179 0)
(0.0224211 0.000784729 0)
(0.0212582 0.000733577 0)
(0.0201696 0.00068468 0)
(0.0191521 0.000637986 0)
(0.0182026 0.00059344 0)
(0.017318 0.000550984 0)
(0.0164953 0.000510556 0)
(0.0157317 0.00047209 0)
(0.0150243 0.000435521 0)
(0.0143704 0.000400781 0)
(0.0137674 0.0003678 0)
(0.0132128 0.000336511 0)
(0.0127041 0.000306844 0)
(0.0122391 0.000278729 0)
(0.0118153 0.0002521 0)
(0.0114309 0.00022689 0)
(0.0110835 0.000203032 0)
(0.0107714 0.000180462 0)
(0.0104927 0.000159118 0)
(0.0102455 0.000138939 0)
(0.0100282 0.000119866 0)
(0.00983912 0.000101843 0)
(0.0096768 8.48156e-05 0)
(0.00953978 6.87321e-05 0)
(0.00942666 5.35356e-05 0)
(0.00933614 3.91895e-05 0)
(0.00926698 2.56411e-05 0)
(0.00921802 1.28471e-05 0)
(0.00918814 7.64656e-07 0)
(0.00917629 -1.06415e-05 0)
(0.00918147 -2.14102e-05 0)
(0.00920275 -3.15792e-05 0)
(0.00923924 -4.11815e-05 0)
(0.00929011 -5.02491e-05 0)
(0.00935455 -5.8812e-05 0)
(0.00943183 -6.6898e-05 0)
(0.00952123 -7.45332e-05 0)
(0.00962209 -8.17424e-05 0)
(0.00973376 -8.85486e-05 0)
(0.00985566 -9.49734e-05 0)
(0.0099872 -0.000101037 0)
(0.0101279 -0.000106759 0)
(0.0102771 -0.000112157 0)
(0.0104345 -0.000117247 0)
(0.0105995 -0.000122046 0)
(0.0107718 -0.000126568 0)
(0.0109508 -0.000130828 0)
(0.0111363 -0.000134837 0)
(0.0113278 -0.00013861 0)
(0.011525 -0.000142157 0)
(0.0117276 -0.00014549 0)
(0.0119352 -0.000148618 0)
(0.0121475 -0.000151552 0)
(0.0123642 -0.0001543 0)
(0.0125851 -0.000156873 0)
(0.0128099 -0.000159276 0)
(0.0130384 -0.00016152 0)
(0.0132702 -0.00016361 0)
(0.0135052 -0.000165553 0)
(0.0137431 -0.000167355 0)
(0.0139838 -0.000169022 0)
(0.014227 -0.000170554 0)
(0.0144725 -0.000171947 0)
(0.0147202 -0.000173213 0)
(0.0149699 -0.000174377 0)
(0.0152213 -0.000175447 0)
(0.0154744 -0.00017642 0)
(0.015729 -0.000177296 0)
(0.0159849 -0.000178079 0)
(0.0162421 -0.000178772 0)
(0.0165003 -0.00017938 0)
(0.0167596 -0.000179906 0)
(0.0170196 -0.000180354 0)
(0.0172804 -0.000180727 0)
(0.0175418 -0.000181028 0)
(0.0178037 -0.000181261 0)
(0.018066 -0.000181428 0)
(0.0183286 -0.000181533 0)
(0.0185914 -0.000181579 0)
(0.0188543 -0.000181567 0)
(0.0191173 -0.0001815 0)
(0.0193802 -0.000181382 0)
(0.0196431 -0.000181214 0)
(0.0199057 -0.000180998 0)
(0.0201681 -0.000180737 0)
(0.0204301 -0.000180433 0)
(0.0206917 -0.000180088 0)
(0.0209529 -0.000179703 0)
(0.0212136 -0.000179281 0)
(0.0214737 -0.000178822 0)
(0.0217332 -0.00017833 0)
(0.021992 -0.000177806 0)
(0.0222501 -0.00017725 0)
(0.0225074 -0.000176665 0)
(0.0227639 -0.000176052 0)
(0.0230196 -0.000175413 0)
(0.0232744 -0.000174748 0)
(0.0235282 -0.000174059 0)
(0.0237811 -0.000173347 0)
(0.024033 -0.000172613 0)
(0.0242838 -0.000171859 0)
(0.0245336 -0.000171086 0)
(0.0247823 -0.000170293 0)
(0.0250299 -0.000169483 0)
(0.0252764 -0.000168657 0)
(0.0255216 -0.000167814 0)
(0.0257657 -0.000166957 0)
(0.0260086 -0.000166086 0)
(0.0262502 -0.000165201 0)
(0.0264906 -0.000164303 0)
(0.0267297 -0.000163394 0)
(0.0269675 -0.000162473 0)
(0.027204 -0.00016154 0)
(0.0274391 -0.000160597 0)
(0.027673 -0.000159643 0)
(0.0279054 -0.000158676 0)
(0.0281365 -0.000157693 0)
(0.0283662 -0.00015669 0)
(0.0285945 -0.00015566 0)
(0.0288214 -0.000154599 0)
(0.0290469 -0.000153526 0)
(0.0292711 -0.000152619 0)
(0.0294939 -0.00015234 0)
(0.0297151 -0.00015171 0)
(0.0299349 -0.000150163 0)
(0.0301534 -0.00014848 0)
(0.0303703 -0.000147434 0)
(0.0305856 -0.000146489 0)
(0.0307995 -0.000145525 0)
(0.0310119 -0.000144535 0)
(0.0312228 -0.000143521 0)
(0.0314322 -0.000142492 0)
(0.0316402 -0.000141454 0)
(0.0318466 -0.00014041 0)
(0.0320515 -0.000139362 0)
(0.032255 -0.000138312 0)
(0.0324569 -0.000137259 0)
(0.0326573 -0.000136205 0)
(0.0328562 -0.00013515 0)
(0.0330536 -0.000134093 0)
(0.0332495 -0.000133036 0)
(0.0334438 -0.000131978 0)
(0.0336367 -0.00013092 0)
(0.033828 -0.000129862 0)
(0.0340177 -0.000128803 0)
(0.034206 -0.000127745 0)
(0.0343927 -0.000126686 0)
(0.0345779 -0.000125628 0)
(0.0347616 -0.000124569 0)
(0.0349437 -0.000123508 0)
(0.0351243 -0.000122441 0)
(0.0353033 -0.000121362 0)
(0.0354808 -0.000120245 0)
(0.0356567 -0.000119104 0)
(0.0358309 -0.000117989 0)
(0.0360036 -0.000116902 0)
(0.0361747 -0.000115822 0)
(0.0363443 -0.000114744 0)
(0.0365123 -0.000113665 0)
(0.0366787 -0.000112584 0)
(0.0368436 -0.000111501 0)
(0.0370068 -0.000110416 0)
(0.0371686 -0.000109329 0)
(0.0373287 -0.00010824 0)
(0.0374873 -0.000107148 0)
(0.0376443 -0.000106054 0)
(0.0377997 -0.000104958 0)
(0.0379535 -0.000103859 0)
(0.0381058 -0.000102758 0)
(0.0382564 -0.000101653 0)
(0.0384054 -0.000100545 0)
(0.0385529 -9.94343e-05 0)
(0.0386987 -9.83197e-05 0)
(0.0388429 -9.72012e-05 0)
(0.0389855 -9.60785e-05 0)
(0.0391265 -9.49514e-05 0)
(0.0392658 -9.38196e-05 0)
(0.0394035 -9.26827e-05 0)
(0.0395395 -9.15404e-05 0)
(0.0396739 -9.03924e-05 0)
(0.0398066 -8.92382e-05 0)
(0.0399377 -8.80774e-05 0)
(0.040067 -8.69098e-05 0)
(0.0401947 -8.57348e-05 0)
(0.0403206 -8.45521e-05 0)
(0.0404449 -8.33612e-05 0)
(0.0405674 -8.21617e-05 0)
(0.0406882 -8.09531e-05 0)
(0.0408072 -7.97352e-05 0)
(0.0409245 -7.85073e-05 0)
(0.04104 -7.72692e-05 0)
(0.0411536 -7.60205e-05 0)
(0.0412655 -7.47609e-05 0)
(0.0413756 -7.349e-05 0)
(0.0414838 -7.22075e-05 0)
(0.0415901 -7.09135e-05 0)
(0.0416946 -6.96077e-05 0)
(0.0417972 -6.82901e-05 0)
(0.0418978 -6.69609e-05 0)
(0.0419966 -6.56204e-05 0)
(0.0420934 -6.4269e-05 0)
(0.0421883 -6.29073e-05 0)
(0.0422812 -6.15362e-05 0)
(0.0423721 -6.01567e-05 0)
(0.042461 -5.87704e-05 0)
(0.042548 -5.73789e-05 0)
(0.0426329 -5.59844e-05 0)
(0.0427159 -5.45895e-05 0)
(0.0427968 -5.31972e-05 0)
(0.0428758 -5.18111e-05 0)
(0.0429528 -5.04356e-05 0)
(0.0430278 -4.90755e-05 0)
(0.0431009 -4.77366e-05 0)
(0.0431721 -4.64255e-05 0)
(0.0432415 -4.51498e-05 0)
(0.0433091 -4.3918e-05 0)
(0.043375 -4.274e-05 0)
(0.0434392 -4.16267e-05 0)
(0.0435019 -4.05909e-05 0)
(0.0435632 -3.96464e-05 0)
(0.0436232 -3.88091e-05 0)
(0.0436822 -3.80967e-05 0)
(0.0437402 -3.7529e-05 0)
(0.0437975 -3.71283e-05 0)
(0.0438543 -3.69193e-05 0)
(0.043911 -3.69303e-05 0)
(0.0439678 -3.7193e-05 0)
(0.0440251 -3.77435e-05 0)
(0.0440834 -3.86232e-05 0)
(0.0441431 -3.98806e-05 0)
(0.0442047 -4.15733e-05 0)
(0.0442689 -4.3772e-05 0)
(0.0443364 -4.65662e-05 0)
(0.0444079 -5.00737e-05 0)
(0.0444845 -5.44574e-05 0)
(0.0445673 -5.99541e-05 0)
(0.0446576 -6.69294e-05 0)
(0.0447574 -7.59584e-05 0)
(0.0448686 -8.79095e-05 0)
(0.0449926 -0.00010419 0)
(0.0451341 -0.000127605 0)
(0.0453116 -0.00016124 0)
(0.0455023 -0.000195631 0)
(1.00011 0.000879372 0)
(1.00047 0.00175927 0)
(1.00088 0.00216154 0)
(1.00115 0.00246477 0)
(1.00132 0.00286455 0)
(1.00136 0.00310245 0)
(1.00128 0.00341944 0)
(1.0011 0.00375835 0)
(1.00082 0.00411443 0)
(1.00046 0.00449443 0)
(1 0.00490794 0)
(0.999447 0.00536388 0)
(0.998784 0.00587114 0)
(0.99801 0.00644012 0)
(0.997121 0.00708272 0)
(0.996108 0.00781242 0)
(0.994961 0.0086457 0)
(0.993674 0.00960441 0)
(0.992235 0.0107135 0)
(0.990636 0.0120026 0)
(0.988862 0.0135081 0)
(0.986905 0.015275 0)
(0.984741 0.0173593 0)
(0.982306 0.0198279 0)
(0.979745 0.0227676 0)
(0.977019 0.0262874 0)
(0.974137 0.0305221 0)
(0.971168 0.0356352 0)
(0.968229 0.0418192 0)
(0.965518 0.0492891 0)
(0.963387 0.0582625 0)
(0.962398 0.0688979 0)
(0.962875 0.0805405 0)
(0.965095 0.0928853 0)
(0.968319 0.102352 0)
(0.970397 0.110109 0)
(0.968451 0.110556 0)
(0.960171 0.108143 0)
(0.944486 0.103744 0)
(0.921354 0.0980745 0)
(0.890777 0.091106 0)
(0.853167 0.0823512 0)
(0.81076 0.0716938 0)
(0.766234 0.0610319 0)
(0.721975 0.0511844 0)
(0.681 0.0427759 0)
(0.644285 0.0359709 0)
(0.612326 0.0306681 0)
(0.584639 0.0265881 0)
(0.560425 0.0234904 0)
(0.538996 0.0211341 0)
(0.519837 0.0192211 0)
(0.502636 0.0175372 0)
(0.487172 0.0159921 0)
(0.473228 0.014571 0)
(0.460601 0.0132883 0)
(0.449116 0.0121313 0)
(0.438647 0.0110825 0)
(0.429098 0.0101306 0)
(0.420381 0.00926789 0)
(0.412413 0.00848713 0)
(0.405118 0.00777436 0)
(0.398437 0.00711616 0)
(0.392325 0.00650424 0)
(0.386742 0.00593471 0)
(0.381647 0.00540593 0)
(0.377003 0.00491444 0)
(0.372777 0.00445448 0)
(0.368942 0.00402081 0)
(0.365476 0.00360994 0)
(0.362358 0.00321994 0)
(0.359568 0.00284954 0)
(0.357091 0.00249712 0)
(0.354909 0.00216072 0)
(0.353007 0.00183851 0)
(0.351374 0.00152899 0)
(0.349999 0.00123111 0)
(0.348872 0.000944164 0)
(0.347983 0.000667453 0)
(0.347323 0.000400456 0)
(0.346884 0.000142586 0)
(0.346658 -0.000105842 0)
(0.346637 -0.00034599 0)
(0.346814 -0.000583411 0)
(0.347185 -0.000815088 0)
(0.347746 -0.00104149 0)
(0.348492 -0.00126256 0)
(0.349419 -0.00147815 0)
(0.35052 -0.00168833 0)
(0.351793 -0.00189324 0)
(0.353232 -0.00209302 0)
(0.354832 -0.00228768 0)
(0.356591 -0.00247712 0)
(0.358503 -0.0026611 0)
(0.360564 -0.00283925 0)
(0.362769 -0.00301106 0)
(0.365112 -0.00317602 0)
(0.36759 -0.00333364 0)
(0.370194 -0.00348348 0)
(0.372919 -0.00362511 0)
(0.375759 -0.00375807 0)
(0.378706 -0.00388185 0)
(0.381754 -0.00399588 0)
(0.384894 -0.00409954 0)
(0.388118 -0.00419215 0)
(0.391417 -0.00427295 0)
(0.394783 -0.00434114 0)
(0.398204 -0.00439586 0)
(0.401671 -0.0044363 0)
(0.405172 -0.00446164 0)
(0.408696 -0.00447106 0)
(0.412228 -0.00446373 0)
(0.415758 -0.00443888 0)
(0.41927 -0.00439583 0)
(0.42275 -0.00433391 0)
(0.426184 -0.00425244 0)
(0.429556 -0.0041508 0)
(0.43285 -0.00402842 0)
(0.43605 -0.00388482 0)
(0.439139 -0.00371962 0)
(0.4421 -0.0035325 0)
(0.444916 -0.00332326 0)
(0.44757 -0.00309178 0)
(0.450043 -0.00283807 0)
(0.452318 -0.00256226 0)
(0.454378 -0.00226461 0)
(0.456206 -0.00194554 0)
(0.457784 -0.00160566 0)
(0.459096 -0.00124583 0)
(0.460126 -0.000867249 0)
(0.46086 -0.000471606 0)
(0.461282 -6.11431e-05 0)
(0.461382 0.000363367 0)
(0.461148 0.000804401 0)
(0.460566 0.00125734 0)
(0.459627 0.00172022 0)
(0.458323 0.00219062 0)
(0.456646 0.00266708 0)
(0.454592 0.00314766 0)
(0.452157 0.00363038 0)
(0.449339 0.00411319 0)
(0.446137 0.00459394 0)
(0.442552 0.00507051 0)
(0.438587 0.00554078 0)
(0.434248 0.00600264 0)
(0.429539 0.00645401 0)
(0.42447 0.00689285 0)
(0.419049 0.0073172 0)
(0.413288 0.00772519 0)
(0.407199 0.00811505 0)
(0.400796 0.00848513 0)
(0.394095 0.00883394 0)
(0.387112 0.00916009 0)
(0.379865 0.0094624 0)
(0.372373 0.00973982 0)
(0.364655 0.00999149 0)
(0.356731 0.0102167 0)
(0.348623 0.010415 0)
(0.340351 0.0105859 0)
(0.331937 0.0107294 0)
(0.323403 0.0108453 0)
(0.314771 0.0109338 0)
(0.306062 0.010995 0)
(0.297298 0.0110292 0)
(0.288499 0.0110369 0)
(0.279686 0.0110188 0)
(0.270876 0.0109767 0)
(0.26209 0.0109126 0)
(0.253347 0.0108283 0)
(0.244668 0.0107238 0)
(0.236072 0.0106013 0)
(0.227578 0.0104603 0)
(0.219193 0.0102986 0)
(0.210925 0.0101196 0)
(0.202785 0.00992867 0)
(0.19479 0.00972672 0)
(0.186954 0.00951399 0)
(0.179288 0.00929198 0)
(0.171799 0.00906094 0)
(0.164495 0.00882137 0)
(0.157381 0.00857467 0)
(0.150463 0.00832206 0)
(0.143746 0.00806442 0)
(0.137232 0.00780305 0)
(0.130925 0.00753939 0)
(0.124826 0.00727448 0)
(0.118938 0.00700925 0)
(0.11326 0.00674455 0)
(0.107793 0.00648122 0)
(0.102534 0.00621999 0)
(0.0974844 0.00596155 0)
(0.0926403 0.00570654 0)
(0.0879996 0.00545552 0)
(0.0835594 0.00520901 0)
(0.0793162 0.00496743 0)
(0.0752663 0.00473121 0)
(0.0714055 0.00450067 0)
(0.0677295 0.0042761 0)
(0.0642337 0.00405776 0)
(0.0609131 0.00384583 0)
(0.0577629 0.00364048 0)
(0.0547779 0.0034418 0)
(0.0519528 0.00324989 0)
(0.0492824 0.00306478 0)
(0.0467613 0.00288648 0)
(0.0443841 0.00271497 0)
(0.0421456 0.0025502 0)
(0.0400403 0.0023921 0)
(0.038063 0.00224058 0)
(0.0362086 0.00209552 0)
(0.0344718 0.0019568 0)
(0.0328476 0.00182428 0)
(0.0313312 0.0016978 0)
(0.0299177 0.00157718 0)
(0.0286025 0.00146227 0)
(0.0273809 0.00135287 0)
(0.0262486 0.00124881 0)
(0.0252013 0.00114988 0)
(0.0242349 0.00105591 0)
(0.0233455 0.000966697 0)
(0.0225292 0.000882047 0)
(0.0217823 0.00080177 0)
(0.0211014 0.000725678 0)
(0.0204829 0.000653583 0)
(0.0199239 0.000585304 0)
(0.019421 0.00052066 0)
(0.0189715 0.00045948 0)
(0.0185725 0.000401592 0)
(0.0182212 0.000346835 0)
(0.0179153 0.00029505 0)
(0.0176522 0.000246086 0)
(0.0174297 0.000199792 0)
(0.0172455 0.000156037 0)
(0.0170977 0.000114681 0)
(0.0169842 7.55986e-05 0)
(0.0169032 3.8667e-05 0)
(0.0168529 3.77243e-06 0)
(0.0168316 -2.91948e-05 0)
(0.0168378 -6.03458e-05 0)
(0.01687 -8.97819e-05 0)
(0.0169267 -0.000117594 0)
(0.0170066 -0.000143873 0)
(0.0171085 -0.000168701 0)
(0.0172311 -0.000192157 0)