/*--------------------------------*- C++ -*----------------------------------*\
| =========                 |                                                 |
| \\      /  F ield         | foam-extend: Open Source CFD                    |
|  \\    /   O peration     | Version:     4.1                                |
|   \\  /    A nd           | Web:         http://www.foam-extend.org         |
|    \\/     M anipulation  |                                                 |
\*---------------------------------------------------------------------------*/
FoamFile
{
    version     2.0;
    format      ascii;
    class       regIOobject;
    location    "0.09/uniform";
    object      profilingInfo;
}
// * * * * * * * * * * * * * * * * * * * * * * * * * * * * * * * * * * * * * //

profilingInfo
(

    {
        id              11;
        parentId        8;
        description     "Foam::Time::writeObject - outputTime";
        calls           9;
        totalTime       0.343671;
        childTime       0;
        onStack         1;
    }

    {
        id              8;
        parentId        1;
        description     "Foam::Time::writeObject";
        calls           90;
        totalTime       0.344074;
        childTime       0.343671;
        onStack         1;
    }

    {
        id              1;
        description     "application::main";
        calls           1;
        totalTime       9.4231;
        childTime       7.63613;
        onStack         1;
    }

    {
        id              9;
        parentId        1;
        description     "FO::minMaxP::execute";
        calls           89;
        totalTime       0.003975;
        childTime       0;
        onStack         0;
    }

    {
        id              10;
        parentId        1;
        description     "FO::minMaxU::execute";
        calls           89;
        totalTime       0.006897;
        childTime       0;
        onStack         0;
    }

    {
        id              2;
        parentId        1;
        description     "functionObjectList::read";
        calls           1;
        totalTime       0.029027;
        childTime       0;
        onStack         0;
    }

    {
        id              3;
        parentId        1;
        description     "fvMatrix::solve_U";
        calls           90;
        totalTime       0.794137;
        childTime       0.727078;
        onStack         0;
    }

    {
        id              6;
        parentId        1;
        description     "fvMatrix::solve_p";
        calls           360;
        totalTime       6.45802;
        childTime       6.2658;
        onStack         0;
    }

    {
        id              4;
        parentId        3;
        description     "lduMatrix::solver_Ux";
        calls           90;
        totalTime       0.314463;
        childTime       0;
        onStack         0;
    }

    {
        id              5;
        parentId        3;
        description     "lduMatrix::solver_Uy";
        calls           90;
        totalTime       0.412615;
        childTime       0;
        onStack         0;
    }

    {
        id              7;
        parentId        6;
        description     "lduMatrix::solver_p";
        calls           360;
        totalTime       6.2658;
        childTime       0;
        onStack         0;
    }
);


// ************************************************************************* //
