# vtk DataFile Version 2.0
"/home/user/Desktop/IB/immersedBoundary/movingCylinderInChannelIcokEpsilon/VTK/normalsibCylinder_live_10".vtk
ASCII
DATASET POLYDATA
POINTS 42 float
0.140975 -0.228193 1.36303e-18 0.18 -0.24142 -1.36904e-18 0.22 -0.248214 0 0.26 -0.248157 
0 0.3 -0.241265 0 0.338719 -0.228096 0 0.0733459 -0.185863 0 
0.1 -0.205397 0 0.38 -0.204996 0 0.406367 -0.185612 0 0.0366149 
-0.144989 -2.3417e-18 0.0533459 -0.164989 0 0.426367 -0.164569 -2.74245e-18 0.443097 -0.144569 
1.40669e-17 0.0220538 -0.12 0 0.45737 -0.12 0 0.00543884 -0.0849514 2.64677e-18 
0.474273 -0.0841069 -1.67132e-18 -0.00584018 -0.04 0 0.485266 -0.04 2.78936e-18 -0.00897623 
0 0 0.488402 0 0 -0.00584018 0.04 0 0.485266 0.04 
-2.78936e-18 0.00543884 0.0849514 0 0.474273 0.0841069 1.67132e-18 0.0220538 0.12 0 
0.45737 0.12 0 0.0366149 0.144989 2.3417e-18 0.0533459 0.164989 2.81132e-18 0.426367 
0.164569 9.59857e-18 0.443097 0.144569 -1.40669e-17 0.0733459 0.185863 -3.97955e-18 0.1 0.205397 
2.33096e-18 0.38 0.204996 2.3255e-18 0.406367 0.185612 -3.1602e-17 0.140975 0.228193 6.81515e-18 
0.18 0.24142 1.36904e-18 0.22 0.248214 0 0.26 0.248157 0 0.3 
0.241265 -1.36839e-18 0.338719 0.228096 -5.53757e-18 
POINT_DATA 42
FIELD attributes 1
normals 3 42 float
0.00131094 0.00304403 5.35078e-19 0.000805248 0.0032 5.62159e-19 0.000281896 0.0032 0 -0.000291037 0.0032 
0 -0.000811706 0.0032 0 -0.00129535 0.00299505 2.71051e-20 0.000938086 0.00106465 0 
0.00218727 0.0032 0 -0.00220333 0.0032 0 -0.000897983 0.00101875 0 0.000798167 
0.000541612 -3.76363e-20 0.00240183 0.00213535 0 -0.002469 0.00218125 3.78928e-19 -0.000731003 0.000495562 
8.70288e-20 0.0032 0.00178817 -2.12504e-19 -0.0032 0.00178809 0 0.00240777 0.000870214 -1.4516e-19 
-0.0025429 0.000916347 8.03978e-20 0.0032 0.000501767 -5.80048e-20 -0.0032 0.000501767 1.35525e-20 0.0032 
0 0 -0.0032 0 0 0.0032 -0.000501767 6.66784e-20 -0.0032 -0.000501767 
-2.71051e-20 0.00240777 -0.000870214 6.67627e-20 -0.0025429 -0.000916347 -6.68453e-20 0.0032 -0.00178817 1.85399e-19 
-0.0032 -0.00178809 2.71051e-20 0.000798167 -0.000541612 3.76363e-20 0.00240183 -0.00213535 -2.12583e-19 -0.002469 
-0.00218125 -1.24091e-18 -0.000731003 -0.000495562 -8.70288e-20 0.000938086 -0.00106465 -8.13406e-20 0.00218727 -0.0032 
5.48606e-19 -0.00220333 -0.0032 -1.64582e-18 -0.000897983 -0.00101875 -6.64538e-19 0.00131094 -0.00304403 -6.37195e-20 
0.000805248 -0.0032 -5.48606e-19 0.000281896 -0.0032 0 -0.000291037 -0.0032 0 -0.000811706 
-0.0032 5.48606e-19 -0.00129535 -0.00299505 3.50729e-20 
