# vtk DataFile Version 2.0
"/home/user/Desktop/IB/immersedBoundary/movingCylinderInChannelIcokEpsilon/VTK/normalsibCylinder_live_5".vtk
ASCII
DATASET POLYDATA
POINTS 42 float
0.0228934 -0.227516 0 0.06 -0.240346 0 0.1 -0.247708 0 0.14 -0.248444 
0 0.18 -0.242339 0 0.22 -0.229172 0 -0.0446644 -0.18412 -3.40271e-18 
-0.02 -0.202693 1.14421e-18 0.260788 -0.207349 0 0.288362 -0.187349 0 -0.0646644 
-0.162059 -4.78506e-18 0.308362 -0.167258 -4.09034e-18 0.325093 -0.147258 9.55274e-18 -0.0939128 -0.12 
0 0.341361 -0.12 0 -0.111873 -0.08 0 0.356269 -0.0899678 2.50593e-17 
0.363059 -0.0699678 -2.97868e-17 -0.122494 -0.0367699 -6.66134e-18 0.369255 -0.04 2.78936e-18 -0.124987 
0 0 0.372391 0 0 -0.122494 0.0367699 6.66134e-18 0.369255 0.04 
-2.78936e-18 -0.111873 0.08 0 0.356269 0.0899678 -2.50593e-17 0.363059 0.0699678 2.97868e-17 
-0.0939128 0.12 0 0.341361 0.12 0 -0.0646644 0.162059 3.5888e-18 0.308362 
0.167258 -3.27227e-18 0.325093 0.147258 -9.55274e-18 -0.0446644 0.18412 -1.47451e-17 -0.02 0.202693 
8.00947e-18 0.260788 0.207349 2.4548e-18 0.288362 0.187349 2.28268e-17 0.0228934 0.227516 6.79982e-18 
0.06 0.240346 0 0.1 0.247708 0 0.14 0.248444 0 0.18 
0.242339 -2.7457e-18 0.22 0.229172 1.30218e-18 
POINT_DATA 42
FIELD attributes 1
normals 3 42 float
0.00120262 0.00273705 -2.38454e-20 0.000850092 0.0032 0 0.000327876 0.0032 5.55383e-19 -0.000210054 0.0032 
5.55383e-19 -0.000766861 0.0032 1.35525e-20 -0.00133987 0.0032 2.71051e-20 0.000659146 0.00074631 -4.2182e-20 
0.00231254 0.0032 -4.94396e-19 -0.00202418 0.00307395 0 -0.00117582 0.00133787 0 0.00287057 
0.00245369 7.79031e-19 -0.00203864 0.00186213 3.24144e-19 -0.00116136 0.000814844 1.38439e-19 0.0032 0.00178249 
0 -0.0032 0.00178812 2.71051e-20 0.0032 0.0010911 0 -0.00160516 0.000597034 -3.11207e-19 
-0.00159484 0.000489511 -8.07224e-19 0.00268318 0.000398961 1.47648e-19 -0.0032 0.000501767 1.35525e-20 0.0032 
0 0 -0.0032 0 0 0.00268318 -0.000398961 -1.47648e-19 -0.0032 -0.000501767 
-2.71051e-20 0.0032 -0.0010911 0 -0.00160516 -0.000597034 3.11207e-19 -0.00159484 -0.000489511 8.07224e-19 
0.0032 -0.00178249 2.71051e-20 -0.0032 -0.00178812 0 0.00287057 -0.00245369 -6.62575e-19 -0.00203864 
-0.00186213 3.81869e-19 -0.00116136 -0.000814844 -1.38439e-19 0.000659146 -0.00074631 -1.88186e-19 0.00231254 -0.0032 
6.02816e-19 -0.00202418 -0.00307395 3.71842e-19 -0.00117582 -0.00133787 8.56184e-19 0.00120262 -0.00273705 2.72433e-19 
0.000850092 -0.0032 0 0.000327876 -0.0032 -5.55383e-19 -0.000210054 -0.0032 -5.55383e-19 -0.000766861 
-0.0032 5.48606e-19 -0.00133987 -0.0032 5.48606e-19 
