# vtk DataFile Version 2.0
"/home/user/Desktop/IB/immersedBoundary/movingCylinderInChannelIcokEpsilon/VTK/normalsibCylinder_live_40".vtk
ASCII
DATASET POLYDATA
POINTS 44 float
0.34842 -0.225659 0 0.38 -0.237399 0 0.42 -0.246261 1.39829e-18 0.46 -0.248689 
1.4115e-18 0.5 -0.244796 0 0.54 -0.2337 0 0.566189 -0.223074 0 
0.300785 -0.19503 8.10181e-18 0.32842 -0.21503 -4.33136e-18 0.586189 -0.211454 0 0.61386 
-0.191454 0 0.264083 -0.159321 0 0.63386 -0.173442 1.41427e-17 0.650566 -0.153442 
-2.22936e-17 0.23291 -0.11389 1.81053e-18 0.244083 -0.13389 0 0.670566 -0.123517 -9.66345e-18 
0.219076 -0.08 -1.33769e-18 0.690273 -0.08 -1.06938e-17 0.209145 -0.04 0 0.700202 
-0.04 2.78936e-18 0.20596 0 0 0.703338 0 0 0.209145 0.04 
0 0.700202 0.04 -2.78936e-18 0.219076 0.08 1.33769e-18 0.690273 0.08 1.06938e-17 
0.23291 0.11389 -1.81053e-18 0.244083 0.13389 0 0.670566 0.123517 9.66345e-18 0.264083 
0.159321 7.89516e-18 0.63386 0.173442 -1.41427e-17 0.650566 0.153442 2.22936e-17 0.300785 0.19503 
1.1574e-18 0.32842 0.21503 8.66272e-18 0.586189 0.211454 6.95388e-18 0.61386 0.191454 -5.49598e-18 
0.34842 0.225659 0 0.38 0.237399 0 0.42 0.246261 -1.39829e-18 0.46 
0.248689 -1.4115e-18 0.5 0.244796 0 0.54 0.2337 2.64138e-18 0.566189 0.223074 
-5.10714e-18 
POINT_DATA 44
FIELD attributes 1
normals 3 44 float
0.00090536 0.00185274 1.35525e-20 0.00097315 0.0032 1.35525e-20 0.000444672 0.0032 5.48606e-19 -5.61244e-05 0.0032 
-7.70372e-34 -0.000566836 0.0032 -5.62159e-19 -0.00120842 0.0032 2.71051e-20 -0.000491798 0.00099029 0 
0.00240473 0.00307439 1.38855e-18 0.000795272 0.00134726 2.25276e-19 -0.00136736 0.00220971 0 -0.00183264 
0.00221763 0 0.00309134 0.00254679 0 -0.00104932 0.000982373 -3.39821e-19 -0.00215068 0.00169058 
-2.09653e-18 0.00222238 0.00113434 3.96048e-19 0.000977624 0.000653212 0 -0.00263724 0.00150942 -6.51092e-19 
0.0032 0.00107922 5.48606e-19 -0.0032 0.00108686 0 0.0032 0.000509659 -5.48606e-19 -0.0032 
0.000501767 -2.20798e-18 0.0032 0 0 -0.0032 0 0 0.0032 -0.000509659 
5.48606e-19 -0.0032 -0.000501767 2.19443e-18 0.0032 -0.00107922 -5.48606e-19 -0.0032 -0.00108686 0 
0.00222238 -0.00113434 -3.96048e-19 0.000977624 -0.000653212 0 -0.00263724 -0.00150942 6.51092e-19 0.00309134 
-0.00254679 1.31322e-18 -0.00104932 -0.000982373 3.39821e-19 -0.00215068 -0.00169058 2.09653e-18 0.00240473 -0.00307439 
-2.24588e-19 0.000795272 -0.00134726 -4.64105e-19 -0.00136736 -0.00220971 -7.62794e-19 -0.00183264 -0.00221763 -7.64168e-19 
0.00090536 -0.00185274 -1.35525e-20 0.00097315 -0.0032 -1.35525e-20 0.000444672 -0.0032 -5.48606e-19 -5.61244e-05 
-0.0032 7.70372e-34 -0.000566836 -0.0032 1.11077e-18 -0.00120842 -0.0032 0 -0.000491798 -0.00099029 
-1.70597e-19 
