# vtk DataFile Version 2.0
"/home/user/Desktop/IB/immersedBoundary/movingCylinderInChannelIcokEpsilon/VTK/normalsibCylinder_live_25".vtk
ASCII
DATASET POLYDATA
POINTS 44 float
0.38 -0.229923 0 0.42 -0.242821 0 0.46 -0.248561 0 0.5 -0.247469 
-1.40349e-18 0.54 -0.23986 0 0.576204 -0.22721 0 0.310734 -0.188131 0 
0.338329 -0.208131 6.46492e-18 0.62 -0.201371 0 0.643766 -0.183292 0 0.274004 
-0.148288 0 0.290734 -0.168288 0 0.663766 -0.160661 0 0.256833 -0.12 
0 0.692148 -0.12 0 0.236038 -0.0726121 0 0.242829 -0.0926121 0 
0.710092 -0.08 0 0.228939 -0.04 -1.39468e-18 0.71843 -0.052231 1.87907e-16 0.721591 
-0.032231 -1.2247e-16 0.225803 0 0 0.723181 0 0 0.228939 0.04 
1.39468e-18 0.71843 0.052231 -1.87907e-16 0.721591 0.032231 1.2247e-16 0.236038 0.0726121 0 
0.242829 0.0926121 0 0.710092 0.08 0 0.256833 0.12 0 0.692148 
0.12 0 0.274004 0.148288 0 0.290734 0.168288 0 0.663766 0.160661 
-7.82753e-18 0.310734 0.188131 0 0.338329 0.208131 -6.46492e-18 0.62 0.201371 -4.54061e-18 
0.643766 0.183292 4.37488e-17 0.38 0.229923 -3.91616e-18 0.42 0.242821 0 0.46 
0.248561 0 0.5 0.247469 0 0.54 0.23986 0 0.576204 0.22721 
1.98998e-17 
POINT_DATA 44
FIELD attributes 1
normals 3 44 float
0.00131767 0.0032 0 0.000745888 0.0032 0 0.000172523 0.0032 -5.55383e-19 -0.000347142 0.0032 
-5.55383e-19 -0.000870391 0.0032 1.35525e-20 -0.00115358 0.0025926 -1.35525e-20 0.00130097 0.0014826 -1.35525e-20 
0.00189903 0.0029327 -6.5469e-19 -0.00236593 0.0032 5.42101e-20 -0.00052669 0.000602515 0 0.00132607 
0.0009593 -6.77626e-21 0.00187393 0.0017174 2.71051e-20 -0.00309418 0.00259749 0 0.0032 0.00178812 
0 -0.0032 0.00178846 0 0.00201794 0.000633968 0 0.00118206 0.000452577 0 
-0.0032 0.0010827 0 0.0032 0.000501767 -5.75711e-19 -0.00124304 0.000251254 -7.20418e-19 -0.00195696 
0.000254505 -7.30152e-19 0.0032 0 0 -0.0032 0 0 0.0032 -0.000501767 
5.75711e-19 -0.00124304 -0.000251254 7.20418e-19 -0.00195696 -0.000254505 7.30152e-19 0.00201794 -0.000633968 0 
0.00118206 -0.000452577 0 -0.0032 -0.0010827 0 0.0032 -0.00178812 0 -0.0032 
-0.00178846 -2.71051e-20 0.00132607 -0.0009593 6.77626e-21 0.00187393 -0.0017174 -2.71051e-20 -0.00309418 -0.00259749 
2.15771e-18 0.00130097 -0.0014826 1.35525e-20 0.00189903 -0.0029327 6.5469e-19 -0.00236593 -0.0032 -2.24864e-18 
-0.00052669 -0.000602515 2.60915e-19 0.00131767 -0.0032 1.12432e-18 0.000745888 -0.0032 0 0.000172523 
-0.0032 5.55383e-19 -0.000347142 -0.0032 1.11077e-18 -0.000870391 -0.0032 5.48606e-19 -0.00115358 -0.0025926 
8.06806e-19 
