# vtk DataFile Version 2.0
"/home/user/Desktop/IB/immersedBoundary/movingCylinderInChannelIcokEpsilon/VTK/normalsibCylinder_live_35".vtk
ASCII
DATASET POLYDATA
POINTS 44 float
0.38707 -0.226071 0 0.42 -0.238076 0 0.46 -0.246612 0 0.5 -0.248689 
0 0.54 -0.244262 0 0.58 -0.232619 -1.31658e-18 0.604868 -0.22244 0 
0.34 -0.196402 0 0.36707 -0.215917 0 0.624868 -0.210567 0 0.652523 
-0.190567 0 0.302257 -0.16 0 0.672523 -0.171985 6.43996e-18 0.689238 -0.151985 
-4.66456e-18 0.271582 -0.115877 7.85565e-18 0.282755 -0.135877 -1.56592e-17 0.709238 -0.120797 -2.69351e-17 
0.25642 -0.08 -2.67543e-18 0.727604 -0.08 -1.06917e-17 0.24649 -0.04 0 0.737546 
-0.04 2.78936e-18 0.243304 0 0 0.740682 0 0 0.24649 0.04 
0 0.737546 0.04 -2.78936e-18 0.25642 0.08 2.67543e-18 0.727604 0.08 1.06917e-17 
0.271582 0.115877 -7.85565e-18 0.282755 0.135877 1.56592e-17 0.709238 0.120797 2.69351e-17 0.302257 
0.16 -4.32943e-18 0.672523 0.171985 -6.43996e-18 0.689238 0.151985 4.66456e-18 0.34 0.196402 
-6.70621e-18 0.36707 0.215917 -1.29677e-17 0.624868 0.210567 0 0.652523 0.190567 0 
0.38707 0.226071 1.18601e-17 0.42 0.238076 0 0.46 0.246612 0 0.5 
0.248689 0 0.54 0.244262 0 0.58 0.232619 0 0.604868 0.22244 
0 
POINT_DATA 44
FIELD attributes 1
normals 3 44 float
0.000971318 0.00206872 0 0.000949454 0.0032 0 0.000416337 0.0032 5.55383e-19 -8.39779e-05 0.0032 
0 -0.000624417 0.0032 -1.09721e-18 -0.00123835 0.0032 -5.48606e-19 -0.000390361 0.000778875 -1.69407e-21 
0.00246901 0.0032 0 0.000653315 0.00113128 0 -0.00150931 0.00242112 0 -0.00169069 
0.00200376 0 0.0032 0.00267962 0 -0.00128237 0.00119624 -2.05401e-19 -0.00191763 0.00147812 
-2.50179e-19 0.00254035 0.00134689 1.09961e-18 0.000659649 0.000440753 7.54986e-20 -0.0030725 0.00172188 2.23142e-18 
0.0032 0.00107906 1.64582e-18 -0.0032 0.00108892 0 0.0032 0.000509733 -4.81482e-35 -0.0032 
0.000501767 -2.20798e-18 0.0032 0 0 -0.0032 0 0 0.0032 -0.000509733 
4.81482e-35 -0.0032 -0.000501767 2.20798e-18 0.0032 -0.00107906 -1.64582e-18 -0.0032 -0.00108892 0 
0.00254035 -0.00134689 -1.09961e-18 0.000659649 -0.000440753 -7.54986e-20 -0.0030725 -0.00172188 -2.23142e-18 0.0032 
-0.00267962 1.09721e-18 -0.00128237 -0.00119624 2.05401e-19 -0.00191763 -0.00147812 2.50179e-19 0.00246901 -0.0032 
5.48606e-19 0.000653315 -0.00113128 3.21502e-20 -0.00150931 -0.00242112 0 -0.00169069 -0.00200376 0 
0.000971318 -0.00206872 3.31127e-19 0.000949454 -0.0032 0 0.000416337 -0.0032 -5.55383e-19 -8.39779e-05 
-0.0032 0 -0.000624417 -0.0032 5.48606e-19 -0.00123835 -0.0032 0 -0.000390361 -0.000778875 
0 
