# vtk DataFile Version 2.0
"/home/user/Desktop/IB/immersedBoundary/movingCylinderInChannelIcokEpsilon/VTK/normalsibCylinder_live_15".vtk
ASCII
DATASET POLYDATA
POINTS 48 float
0.23154 -0.224213 0 0.26 -0.23534 0 0.3 -0.245445 0 0.34 -0.248689 
0 0.38 -0.245655 -1.39519e-18 0.42 -0.235898 0 0.449285 -0.224615 -1.22534e-17 
0.183906 -0.192908 -4.10561e-18 0.21154 -0.212908 0 0.469285 -0.213494 1.57668e-17 0.49696 
-0.193494 -2.6055e-18 0.147196 -0.156083 -2.74691e-18 0.163906 -0.176083 2.55204e-17 0.51696 -0.176968 
1.39742e-17 0.533601 -0.156968 -1.42816e-17 0.115996 -0.108058 -3.13772e-18 0.127196 -0.128058 0 
0.553601 -0.129683 9.30289e-18 0.564824 -0.109683 2.21846e-17 0.105222 -0.08 0 0.576407 
-0.08 -1.06991e-17 0.0952911 -0.04 0 0.586338 -0.04 4.18293e-18 0.0921304 0 
0 0.589508 0 0 0.0952911 0.04 0 0.586338 0.04 -4.18293e-18 
0.105222 0.08 0 0.576407 0.08 1.06991e-17 0.115996 0.108058 3.13772e-18 0.127196 
0.128058 0 0.553601 0.129683 -9.30289e-18 0.564824 0.109683 -2.21846e-17 0.147196 0.156083 
2.74691e-18 0.163906 0.176083 -2.55204e-17 0.51696 0.176968 -1.39742e-17 0.533601 0.156968 1.42816e-17 
0.183906 0.192908 4.10561e-18 0.21154 0.212908 -1.7718e-17 0.469285 0.213494 9.00962e-18 0.49696 
0.193494 2.6055e-18 0.23154 0.224213 3.06225e-17 0.26 0.23534 -1.33424e-18 0.3 0.245445 
0 0.34 0.248689 0 0.38 0.245655 1.39519e-18 0.42 0.235898 1.33924e-18 
0.449285 0.224615 -2.45067e-17 
POINT_DATA 48
FIELD attributes 1
normals 3 48 float
0.000674047 0.00135356 0 0.00110627 0.0032 0 0.000510509 0.0032 -1.35525e-20 8.59368e-06 0.0032 
-5.55171e-19 -0.000494063 0.0032 -5.48606e-19 -0.00106695 0.0032 5.48606e-19 -0.000738399 0.00148566 7.68328e-22 
0.00206532 0.00257505 -3.68874e-19 0.00113468 0.00184644 0 -0.00104096 0.00171434 -6.54535e-19 -0.00215904 
0.00271355 -4.79308e-19 0.00257326 0.00204864 -3.94531e-19 0.000626741 0.000624946 -2.16987e-19 -0.000485057 0.00048645 
-8.62385e-20 -0.00271494 0.00217622 -2.2691e-18 0.00128932 0.000640707 -1.10126e-19 0.00191068 0.00115136 -1.35525e-20 
-0.00165071 0.00102378 -9.58243e-19 -0.00154929 0.000771771 1.20755e-18 0.0032 0.00108314 -2.74303e-19 -0.0032 
0.00108162 0 0.0032 0.000505718 -1.35525e-20 -0.0032 0.000507275 -2.22153e-18 0.0032 0 
0 -0.0032 0 0 0.0032 -0.000505718 1.35525e-20 -0.0032 -0.000507275 2.22153e-18 
0.0032 -0.00108314 2.74303e-19 -0.0032 -0.00108162 0 0.00128932 -0.000640707 1.10126e-19 0.00191068 
-0.00115136 1.35525e-20 -0.00165071 -0.00102378 9.58243e-19 -0.00154929 -0.000771771 -1.21432e-18 0.00257326 -0.00204864 
3.94531e-19 0.000626741 -0.000624946 2.16987e-19 -0.000485057 -0.00048645 8.62385e-20 -0.00271494 -0.00217622 2.2691e-18 
0.00206532 -0.00257505 3.68874e-19 0.00113468 -0.00184644 5.93408e-19 -0.00104096 -0.00171434 -7.25405e-20 -0.00215904 
-0.00271355 4.52203e-19 0.000674047 -0.00135356 5.90951e-19 0.00110627 -0.0032 5.48606e-19 0.000510509 -0.0032 
1.35525e-20 8.59368e-06 -0.0032 5.55171e-19 -0.000494063 -0.0032 -1.35525e-20 -0.00106695 -0.0032 -1.64582e-18 
-0.000738399 -0.00148566 -7.72059e-19 
