# vtk DataFile Version 2.0
"/home/user/Desktop/IB/immersedBoundary/movingCylinderInChannelIcokEpsilon/VTK/normalsibCylinder_live_20".vtk
ASCII
DATASET POLYDATA
POINTS 48 float
0.311498 -0.224233 0 0.34 -0.235369 0 0.38 -0.245456 1.39415e-18 0.42 -0.248689 
0 0.46 -0.245641 0 0.5 -0.235867 0 0.529243 -0.224594 0 
0.263859 -0.192938 0 0.291498 -0.212938 0 0.549243 -0.213464 0 0.576918 
-0.193464 0 0.227155 -0.156131 -1.36927e-18 0.243859 -0.176131 1.2916e-17 0.596918 -0.176926 
0 0.61356 -0.156926 -1.04148e-17 0.195954 -0.108142 1.78565e-17 0.207155 -0.128142 -1.22317e-17 
0.63356 -0.1296 2.65446e-17 0.644782 -0.1096 -1.18465e-17 0.185138 -0.08 -1.33721e-18 0.656324 
-0.08 0 0.175208 -0.04 -1.39441e-18 0.666254 -0.04 2.78863e-18 0.172046 0 
0 0.669424 0 0 0.175208 0.04 1.39441e-18 0.666254 0.04 -2.78863e-18 
0.185138 0.08 1.33721e-18 0.656324 0.08 0 0.195954 0.108142 -1.78565e-17 0.207155 
0.128142 1.22317e-17 0.63356 0.1296 -2.65446e-17 0.644782 0.1096 1.18465e-17 0.227155 0.156131 
1.36927e-18 0.243859 0.176131 -2.45405e-17 0.596918 0.176926 -1.20795e-16 0.61356 0.156926 2.34334e-17 
0.263859 0.192938 2.72977e-18 0.291498 0.212938 -1.25548e-17 0.549243 0.213464 2.80395e-17 0.576918 
0.193464 1.17526e-17 0.311498 0.224233 1.78367e-17 0.34 0.235369 0 0.38 0.245456 
-1.39415e-18 0.42 0.248689 0 0.46 0.245641 0 0.5 0.235867 2.67808e-18 
0.529243 0.224594 -3.69276e-17 
POINT_DATA 48
FIELD attributes 1
normals 3 48 float
0.000677344 0.00136031 6.77626e-21 0.0011043 0.0032 0 0.000509614 0.0032 5.62159e-19 7.71386e-06 0.0032 
7.70372e-34 -0.000495337 0.0032 -5.48606e-19 -0.00106853 0.0032 0 -0.000735108 0.00147889 0 
0.00207014 0.0025825 2.71051e-20 0.00112985 0.00183969 0 -0.00104574 0.00172111 0 -0.00215426 
0.00270684 -2.71051e-20 0.00258091 0.00205514 9.98132e-20 0.000619089 0.000617497 -1.06075e-19 -0.000491893 0.000493161 
-1.69407e-21 -0.00270811 0.00216966 -1.88824e-18 0.00130268 0.000647416 4.00509e-19 0.00189732 0.00114486 6.38778e-19 
-0.00166396 0.00103034 -1.42964e-18 -0.00153604 0.000765062 -1.94405e-19 0.0032 0.00108306 5.75711e-19 -0.0032 
0.00108169 0 0.0032 0.000505806 -5.62159e-19 -0.0032 0.000507204 2.23508e-18 0.0032 0 
0 -0.0032 0 0 0.0032 -0.000505806 5.62159e-19 -0.0032 -0.000507204 -2.22153e-18 
0.0032 -0.00108306 -5.75711e-19 -0.0032 -0.00108169 0 0.00130268 -0.000647416 -3.93732e-19 0.00189732 
-0.00114486 -6.38778e-19 -0.00166396 -0.00103034 1.42964e-18 -0.00153604 -0.000765062 1.94405e-19 0.00258091 -0.00205514 
-9.98132e-20 0.000619089 -0.000617497 2.13983e-19 -0.000491893 -0.000493161 6.83961e-19 -0.00270811 -0.00216966 3.39993e-18 
0.00207014 -0.0025825 3.42187e-19 0.00112985 -0.00183969 3.85734e-19 -0.00104574 -0.00172111 -1.01354e-18 -0.00215426 
-0.00270684 1.02762e-18 0.000677344 -0.00136031 2.32697e-19 0.0011043 -0.0032 0 0.000509614 -0.0032 
-5.62159e-19 7.71386e-06 -0.0032 -7.70372e-34 -0.000495337 -0.0032 5.48606e-19 -0.00106853 -0.0032 -5.48606e-19 
-0.000735108 -0.00147889 -7.62785e-19 
