/*--------------------------------*- C++ -*----------------------------------*\
| =========                 |                                                 |
| \\      /  F ield         | OpenFOAM: The Open Source CFD Toolbox           |
|  \\    /   O peration     | Version:  2206                                  |
|   \\  /    A nd           | Website:  www.openfoam.com                      |
|    \\/     M anipulation  |                                                 |
\*---------------------------------------------------------------------------*/
FoamFile
{
    version     2.0;
    format      ascii;
    arch        "LSB;label=32;scalar=64";
    class       volScalarField;
    location    "0.8";
    object      epsilon;
}
// * * * * * * * * * * * * * * * * * * * * * * * * * * * * * * * * * * * * * //

dimensions      [0 2 -3 0 0 0 0];

internalField   nonuniform List<scalar> 
1875
(
0.000331244
0.000727874
0.00151198
0.00228101
0.00277713
0.00301305
0.00304717
0.00294862
0.00277896
0.00258235
0.00238667
0.00220797
0.00205447
0.00192962
0.00183399
0.00176688
0.00172666
0.00171307
0.00172708
0.00177144
0.00185147
0.00197624
0.00216036
0.00242691
0.00281212
0.0033727
0.00419738
0.00542439
0.00726722
0.0100495
0.014247
0.0205252
0.0297468
0.0429393
0.061323
0.0847649
0.109497
0.130677
0.142339
0.14046
0.125134
0.100691
0.0737807
0.0494638
0.0308355
0.0186742
0.0113594
0.00710821
0.0046673
0.00324773
0.00242013
0.00193532
0.00165087
0.00148456
0.00138876
0.00133599
0.00130979
0.00129928
0.00129725
0.00129872
0.00130208
0.00130717
0.00131305
0.00131907
0.00132479
0.00132996
0.00133446
0.00133829
0.00134148
0.00134409
0.00134619
0.00134788
0.0013492
0.00135022
0.00135093
0.0002354
0.000343233
0.000567119
0.000862419
0.0011692
0.00141965
0.00159819
0.00170159
0.00173747
0.00172069
0.00166833
0.00159612
0.00151657
0.00143876
0.00136871
0.00130978
0.00126177
0.00122551
0.00120154
0.00119023
0.00119221
0.00120884
0.00124253
0.00129734
0.00137967
0.00149923
0.00167048
0.00191453
0.00226204
0.00275724
0.0034635
0.00447069
0.00590402
0.00793605
0.010809
0.0148132
0.0207138
0.0279789
0.0355898
0.0418979
0.0453693
0.0452078
0.041576
0.0354609
0.0281348
0.0209141
0.0147342
0.0100059
0.00669202
0.00451854
0.00315197
0.00231437
0.00180643
0.00149674
0.00130734
0.00119088
0.00111908
0.00107417
0.00104643
0.00102936
0.00101915
0.00101342
0.00101058
0.00100952
0.00100952
0.0010101
0.00101095
0.00101189
0.00101282
0.00101368
0.00101444
0.00101509
0.00101564
0.00101609
0.00101638
0.000201733
0.000228072
0.000291516
0.000388031
0.000503958
0.000620917
0.000727389
0.000812931
0.000874182
0.000910865
0.000925037
0.000920667
0.000902448
0.000875111
0.000842934
0.000809557
0.000777103
0.000746122
0.000717809
0.000692833
0.000671556
0.000654244
0.000641247
0.000633207
0.000631265
0.000637237
0.000653831
0.000684965
0.000736367
0.000816628
0.000938351
0.00111703
0.00136718
0.0017026
0.00214595
0.00274514
0.00365117
0.0053431
0.00778323
0.0107092
0.0136052
0.0158971
0.017148
0.0171779
0.016056
0.0140567
0.0115747
0.00901377
0.00669928
0.00482118
0.00342259
0.00244673
0.00179619
0.00137457
0.00110547
0.000935479
0.000827519
0.000758184
0.000713555
0.000684344
0.000665425
0.000653169
0.000645244
0.000640174
0.000636984
0.000635024
0.00063386
0.000633204
0.000632869
0.000632732
0.000632713
0.000632763
0.000632852
0.000632965
0.000633078
0.000190522
0.000189467
0.00020236
0.000229641
0.000268722
0.000313905
0.00035966
0.000401467
0.000436781
0.000464015
0.000481718
0.000490318
0.000490707
0.000484165
0.000472221
0.000456505
0.00043902
0.000420308
0.000401154
0.000382161
0.000363766
0.000346303
0.00033008
0.000315474
0.000303044
0.000293636
0.000288578
0.000290136
0.0003027
0.00033515
0.000401323
0.00051044
0.000650146
0.000788324
0.000913347
0.00102302
0.00114064
0.0014094
0.00200692
0.00296616
0.00421205
0.00555603
0.0067579
0.00760353
0.00795252
0.00776954
0.00712574
0.00616309
0.00505022
0.00394799
0.00297702
0.00219633
0.00161136
0.00119532
0.000910037
0.000719102
0.000593439
0.000511677
0.000458297
0.000423251
0.000400088
0.000384869
0.000374854
0.000368258
0.000363914
0.000361062
0.000359198
0.000357988
0.000357212
0.00035672
0.000356417
0.000356239
0.000356143
0.000356113
0.000356157
0.000187004
0.000176339
0.000172047
0.000174542
0.000183265
0.000196639
0.000212598
0.000229076
0.000244289
0.00025697
0.000266195
0.000271674
0.000273432
0.000271644
0.000266558
0.00025877
0.000249216
0.000238653
0.000227435
0.000215903
0.000204354
0.000193056
0.000182348
0.00017257
0.000164239
0.000158188
0.000155956
0.000160942
0.000181577
0.000237114
0.000351994
0.000522064
0.000685432
0.000770281
0.000854235
0.000971986
0.0010996
0.00120983
0.00143214
0.0017819
0.0022748
0.00284846
0.00343508
0.00395769
0.00431759
0.00444955
0.00433189
0.00398729
0.00347832
0.00288745
0.00229618
0.00176575
0.00132829
0.000990278
0.00074165
0.000565218
0.000443197
0.00036037
0.000305185
0.000268638
0.000244367
0.000228305
0.000217679
0.000210682
0.000206066
0.000203018
0.000201007
0.000199681
0.000198809
0.000198238
0.000197865
0.000197626
0.000197476
0.000197395
0.000197396
0.000185879
0.000172021
0.000161669
0.000155003
0.000151873
0.000151778
0.000153948
0.000157459
0.000161398
0.000165029
0.000167782
0.000169233
0.000169148
0.000167453
0.000164179
0.000159477
0.000153705
0.000147443
0.000140882
0.000134201
0.000127535
0.000121102
0.000115189
0.000110148
0.000106554
0.000105467
0.000109252
0.000124191
0.000167856
0.00027946
0.000480613
0.000703813
0.000853586
0.000802493
0.00103064
0.0019342
0.00373099
0.00525094
0.00586601
0.00608921
0.00625224
0.00582276
0.00508782
0.00442826
0.00394203
0.00357822
0.00326887
0.00295394
0.00259072
0.00219082
0.00178448
0.00140513
0.00107745
0.000812194
0.000608292
0.000457669
0.000349723
0.00027412
0.000222118
0.000186887
0.000163375
0.000147731
0.000137351
0.000130492
0.000125974
0.000123001
0.000121047
0.000119763
0.000118918
0.000118362
0.000117998
0.000117759
0.000117604
0.00011751
0.000117482
0.000185487
0.000170561
0.000158104
0.000148064
0.000140314
0.000134632
0.000130686
0.000128055
0.000126285
0.000124961
0.000123736
0.000122312
0.000120482
0.000118108
0.000115165
0.00011167
0.000107728
0.000103647
9.95285e-05
9.54769e-05
9.16191e-05
8.81796e-05
8.53536e-05
8.35113e-05
8.33587e-05
8.63963e-05
9.64768e-05
0.000125107
0.000206163
0.000404916
0.000669209
0.000913437
0.00110279
0.000699012
0.0011005
0.001732
0.00314072
0.00368921
0.00253975
0.00195519
0.0111163
0.0125762
0.0103586
0.00775787
0.00574717
0.00436438
0.0034406
0.00280326
0.00230845
0.00188766
0.00151559
0.00118904
0.000912432
0.00068853
0.000514872
0.000384966
0.000290572
0.000223543
0.000176816
0.000144726
0.000122974
0.000108424
9.87806e-05
9.24058e-05
8.82127e-05
8.54649e-05
8.36684e-05
8.2495e-05
8.17286e-05
8.12278e-05
8.09002e-05
8.06858e-05
8.05459e-05
8.04574e-05
8.04147e-05
0.000185335
0.000170028
0.000156828
0.000145556
0.000136042
0.000128103
0.000121539
0.000116122
0.000111611
0.000107771
0.00010439
0.000101284
9.8302e-05
9.53386e-05
9.23307e-05
8.92573e-05
8.61533e-05
8.31446e-05
8.02877e-05
7.76566e-05
7.53517e-05
7.35277e-05
7.24312e-05
7.25078e-05
7.46603e-05
8.10335e-05
9.77481e-05
0.000144541
0.000279649
0.000583731
0.000821173
0.00119901
0.000765971
0.0031484
0.0002
0.0002
0.0002
0.0002
0.0002
0.00934818
0.00630527
0.00866566
0.00956264
0.0082099
0.0063921
0.00485664
0.0037176
0.00288198
0.00226489
0.00178208
0.0013907
0.00107029
0.000811131
0.00060695
0.000450898
0.000335103
0.000251242
0.000191749
0.000150254
0.000121718
0.00010233
8.92958e-05
8.06248e-05
7.49156e-05
7.11719e-05
6.87277e-05
6.71381e-05
6.61069e-05
6.54387e-05
6.50058e-05
6.47252e-05
6.45431e-05
6.44247e-05
6.43484e-05
6.43033e-05
0.000185268
0.000169811
0.000156329
0.000144596
0.000134405
0.000125573
0.000117927
0.000111303
0.00010554
0.000100491
9.60199e-05
9.20076e-05
8.8352e-05
8.49738e-05
8.18172e-05
7.88504e-05
7.60774e-05
7.35399e-05
7.12684e-05
6.93162e-05
6.77718e-05
6.67861e-05
6.66317e-05
6.78397e-05
7.15691e-05
8.08e-05
0.000104715
0.000174502
0.000380029
0.000797901
0.000981481
0.000729345
0.0002
0.0002
0.0002
0.0002
0.0002
0.0002
0.0002
0.0002
0.000245866
0.00281049
0.00443408
0.00531529
0.00488951
0.00411402
0.00334061
0.00266987
0.00211401
0.00165433
0.00127665
0.000970373
0.000727192
0.000539335
0.000398225
0.000294892
0.000220815
0.000168634
0.000132405
0.00010757
9.07243e-05
7.9408e-05
7.18719e-05
6.68942e-05
6.3636e-05
6.15139e-05
6.0138e-05
5.92492e-05
5.86767e-05
5.83085e-05
5.80718e-05
5.79196e-05
5.78215e-05
5.77578e-05
5.77144e-05
0.000185235
0.000169712
0.000156111
0.00014419
0.00013373
0.000124539
0.00011645
0.000109317
0.000103007
9.74061e-05
9.2415e-05
8.79467e-05
8.39275e-05
8.02974e-05
7.701e-05
7.40336e-05
7.13589e-05
6.8994e-05
6.69571e-05
6.52913e-05
6.40803e-05
6.34818e-05
6.37989e-05
6.56547e-05
7.04837e-05
8.22035e-05
0.000113634
0.000210019
0.000501821
0.00104786
0.000538644
0.00341962
0.0002
0.0002
0.0002
0.0002
0.0002
0.0002
0.0002
0.0002
0.0002
0.00264799
0.00148653
0.00219031
0.00265082
0.00266418
0.00242536
0.00209241
0.00173696
0.00139587
0.00109105
0.000833219
0.000625099
0.00046391
0.000343289
0.000255441
0.000192778
0.000148792
0.000118308
9.74072e-05
8.32109e-05
7.36513e-05
6.72653e-05
6.30334e-05
6.02489e-05
5.84303e-05
5.72495e-05
5.64865e-05
5.59955e-05
5.56806e-05
5.54791e-05
5.53503e-05
5.52678e-05
5.52139e-05
5.51734e-05
0.000185219
0.000169663
0.000156008
0.000144003
0.000133427
0.000124086
0.000115813
0.000108465
0.000101921
9.60781e-05
9.08507e-05
8.61665e-05
8.19648e-05
7.8196e-05
7.48199e-05
7.18066e-05
6.91411e-05
6.68197e-05
6.48546e-05
6.32844e-05
6.21924e-05
6.17444e-05
6.22718e-05
6.44788e-05
7.00519e-05
8.38128e-05
0.000122324
0.000246782
0.000643436
0.00136536
0.000935725
0.0002
0.0002
0.0002
0.0002
0.0002
0.0002
0.0002
0.0002
0.0002
0.0002
0.0002
0.000428808
0.000763526
0.00113643
0.00140657
0.00149983
0.00143229
0.0012684
0.00106359
0.000854534
0.000664776
0.000506017
0.000380705
0.000285859
0.000216274
0.000166339
0.000131071
0.000106459
8.94531e-05
7.78047e-05
6.98921e-05
6.45601e-05
6.09953e-05
5.86303e-05
5.70731e-05
5.60551e-05
5.53938e-05
5.49666e-05
5.46919e-05
5.4516e-05
5.44037e-05
5.43318e-05
5.42846e-05
5.42467e-05
0.000185211
0.000169639
0.000155959
0.000143917
0.00013329
0.000123886
0.000115537
0.000108102
0.000101462
9.55194e-05
9.01924e-05
8.54143e-05
8.11302e-05
7.72943e-05
7.38695e-05
7.0827e-05
6.8149e-05
6.58279e-05
6.38732e-05
6.23216e-05
6.12571e-05
6.08513e-05
6.14553e-05
6.38299e-05
6.98438e-05
8.50172e-05
0.000129065
0.000278394
0.000775676
0.00158696
0.00165486
0.0002
0.0002
0.0002
0.0002
0.0002
0.0002
0.0002
0.0002
0.0002
0.0002
0.0002
0.000282639
0.000336477
0.000503776
0.000714705
0.000876117
0.000937825
0.000892712
0.000783402
0.000649846
0.000518037
0.000402754
0.0003095
0.000237661
0.000184125
0.000145152
0.000117238
9.74856e-05
8.36463e-05
7.40375e-05
6.74241e-05
6.29117e-05
5.98594e-05
5.78125e-05
5.64512e-05
5.55531e-05
5.49651e-05
5.45827e-05
5.43356e-05
5.41766e-05
5.40748e-05
5.40096e-05
5.39665e-05
5.39303e-05
0.000185208
0.000169632
0.000155944
0.000143891
0.00013325
0.000123828
0.000115458
0.000107999
0.000101333
9.53622e-05
9.00071e-05
8.52022e-05
8.08937e-05
7.70371e-05
7.3596e-05
7.05421e-05
6.7856e-05
6.55295e-05
6.35715e-05
6.20183e-05
6.09538e-05
6.05519e-05
6.11704e-05
6.35914e-05
6.97535e-05
8.5463e-05
0.000131859
0.000293251
0.000850607
0.00177509
0.00262098
0.0002
0.0002
0.0002
0.0002
0.0002
0.0002
0.0002
0.0002
0.0002
0.0002
0.0002
0.000199582
0.000219593
0.000337428
0.000494522
0.000641543
0.000727209
0.000721858
0.000648891
0.000547456
0.000442192
0.000347909
0.000270973
0.000211277
0.000166372
0.000133389
0.000109543
9.25028e-05
8.04447e-05
7.19901e-05
6.61154e-05
6.20707e-05
5.93114e-05
5.74463e-05
5.61968e-05
5.5367e-05
5.48202e-05
5.44627e-05
5.42305e-05
5.40806e-05
5.39842e-05
5.39222e-05
5.38811e-05
5.38458e-05
0.000185211
0.000169639
0.000155959
0.000143917
0.00013329
0.000123886
0.000115537
0.000108101
0.00010146
9.55157e-05
9.0186e-05
8.54045e-05
8.11159e-05
7.72748e-05
7.38442e-05
7.07958e-05
6.81119e-05
6.57852e-05
6.38255e-05
6.22695e-05
6.12011e-05
6.07917e-05
6.13918e-05
6.37604e-05
6.9756e-05
8.48444e-05
0.000128466
0.000276048
0.000769708
0.0015932
0.00165959
0.0002
0.0002
0.0002
0.0002
0.0002
0.0002
0.0002
0.0002
0.0002
0.0002
0.0002
0.000273718
0.000327376
0.000482801
0.000677686
0.000824538
0.000878021
0.000829611
0.00072157
0.00059385
0.000470546
0.00036462
0.000280219
0.000216002
0.00016859
0.000134291
0.000109805
9.24911e-05
8.03432e-05
7.18822e-05
6.60329e-05
6.20203e-05
5.92899e-05
5.74471e-05
5.62136e-05
5.53944e-05
5.48545e-05
5.45013e-05
5.42715e-05
5.4123e-05
5.40273e-05
5.39656e-05
5.39245e-05
5.38891e-05
0.000185219
0.000169663
0.000156008
0.000144003
0.000133426
0.000124085
0.000115811
0.000108462
0.000101914
9.6066e-05
9.08306e-05
8.61355e-05
8.19202e-05
7.81356e-05
7.47425e-05
7.17122e-05
6.90307e-05
6.6695e-05
6.47177e-05
6.31379e-05
6.20387e-05
6.15853e-05
6.21077e-05
6.43059e-05
6.98463e-05
8.34468e-05
0.000121176
0.000242616
0.00063457
0.001372
0.000936255
0.0002
0.0002
0.0002
0.0002
0.0002
0.0002
0.0002
0.0002
0.0002
0.0002
0.0002
0.000404065
0.000725716
0.00106227
0.00130081
0.00137183
0.00129475
0.00113088
0.000935976
0.000743038
0.000572303
0.000432707
0.000324816
0.000244652
0.000186734
0.000145657
0.000116878
9.68841e-05
8.30857e-05
7.36198e-05
6.71648e-05
6.27901e-05
5.98446e-05
5.78745e-05
5.65659e-05
5.57026e-05
5.51365e-05
5.47674e-05
5.4528e-05
5.43734e-05
5.42738e-05
5.42095e-05
5.41667e-05
5.41302e-05
0.000185235
0.000169712
0.000156112
0.00014419
0.000133729
0.000124538
0.000116447
0.000109308
0.000102989
9.73745e-05
9.23627e-05
8.78668e-05
8.38137e-05
8.01449e-05
7.68167e-05
7.38007e-05
7.10902e-05
6.8695e-05
6.66343e-05
6.49523e-05
6.37326e-05
6.31319e-05
6.34509e-05
6.53065e-05
7.01099e-05
8.16657e-05
0.000112287
0.000205693
0.000493533
0.00105566
0.00053798
0.00336964
0.0002
0.0002
0.0002
0.0002
0.0002
0.0002
0.0002
0.0002
0.0002
0.00254864
0.00142234
0.00205052
0.00245408
0.00243513
0.00218093
0.00185214
0.00151483
0.0012
0.000925383
0.000698489
0.000519504
0.000383917
0.000284484
0.000213316
0.000163258
0.000128485
0.000104552
8.82016e-05
7.71044e-05
6.96181e-05
6.45975e-05
6.12519e-05
5.90355e-05
5.75766e-05
5.66215e-05
5.5999e-05
5.55949e-05
5.53336e-05
5.51649e-05
5.50563e-05
5.49861e-05
5.49394e-05
5.49006e-05
0.000185268
0.000169811
0.000156329
0.000144596
0.000134405
0.000125571
0.00011792
0.000111284
0.000105501
0.000100419
9.59011e-05
9.18267e-05
8.80961e-05
8.4634e-05
8.13908e-05
7.83415e-05
7.54968e-05
7.29014e-05
7.05879e-05
6.86116e-05
6.7061e-05
6.60849e-05
6.5952e-05
6.71858e-05
7.0923e-05
8.00472e-05
0.000103338
0.000170876
0.000373784
0.000806244
0.00100343
0.000724304
0.0002
0.0002
0.0002
0.0002
0.0002
0.0002
0.0002
0.0002
0.000245866
0.00260901
0.00419052
0.00494945
0.00449008
0.00372086
0.00297491
0.00234053
0.00182439
0.00140561
0.00106891
0.000802281
0.000595647
0.000439677
0.000324904
0.000242299
0.000183881
0.000143142
0.000115043
9.58538e-05
8.28536e-05
7.41117e-05
6.8274e-05
6.4402e-05
6.18549e-05
6.0186e-05
5.9097e-05
5.83889e-05
5.79296e-05
5.76323e-05
5.74401e-05
5.73158e-05
5.72351e-05
5.71815e-05
5.71387e-05
0.000185335
0.000170028
0.000156828
0.000145557
0.000136042
0.0001281
0.000121527
0.000116089
0.000111537
0.000107629
0.000104152
0.000100919
9.77884e-05
9.46612e-05
9.14878e-05
8.82603e-05
8.50261e-05
8.19169e-05
7.89925e-05
7.63299e-05
7.40289e-05
7.22398e-05
7.12014e-05
7.13502e-05
7.3569e-05
7.99321e-05
9.62859e-05
0.000141657
0.000275143
0.00058793
0.00084657
0.00123404
0.00077301
0.00317457
0.0002
0.0002
0.0002
0.0002
0.0002
0.00927795
0.00590432
0.00832349
0.00898663
0.00765125
0.00589415
0.00441754
0.00332654
0.00253085
0.00195042
0.00150593
0.00115569
0.000877667
0.000659287
0.000491541
0.000365934
0.000274181
0.000208469
0.000162188
0.000130038
0.000107961
9.29526e-05
8.28406e-05
7.60919e-05
7.16319e-05
6.86923e-05
6.67629e-05
6.55011e-05
6.46778e-05
6.41415e-05
6.37923e-05
6.35649e-05
6.34167e-05
6.33199e-05
6.32557e-05
6.32074e-05
0.000185487
0.000170561
0.000158105
0.000148067
0.00014032
0.000134638
0.000130681
0.000128013
0.000126167
0.000124717
0.000123309
0.000121652
0.00011955
0.000116884
0.000113654
0.000109899
0.000105745
0.000101509
9.72952e-05
9.32113e-05
8.93807e-05
8.60194e-05
8.33105e-05
8.16091e-05
8.16007e-05
8.47378e-05
9.47111e-05
0.000122616
0.000202782
0.000407119
0.000686372
0.000949658
0.00116802
0.000708099
0.00111376
0.00179041
0.00331529
0.0038796
0.0026145
0.00189407
0.0106969
0.0120917
0.0100327
0.0074898
0.00547838
0.00407142
0.00312276
0.00247236
0.00198277
0.00158582
0.00125182
0.000970903
0.000740714
0.000558917
0.000420334
0.000317826
0.000243817
0.000191402
0.000154853
0.000129693
0.000112574
0.000101076
9.34152e-05
8.83183e-05
8.49448e-05
8.27198e-05
8.12558e-05
8.02938e-05
7.9662e-05
7.92472e-05
7.89748e-05
7.8796e-05
7.86787e-05
7.86017e-05
7.85473e-05
0.000185879
0.000172022
0.000161673
0.000155016
0.000151903
0.000151826
0.000153991
0.000157448
0.000161255
0.000164658
0.000167085
0.000168126
0.000167577
0.000165402
0.000161674
0.00015658
0.000150504
0.000144037
0.000137372
0.000130685
0.000124098
0.000117814
0.000112099
0.000107283
0.000103914
0.000103023
0.000106886
0.000121576
0.000164826
0.000279417
0.000491646
0.000732599
0.000912336
0.00086726
0.00107739
0.00200391
0.00387055
0.0054514
0.00608517
0.0062792
0.00633334
0.00587677
0.00510342
0.00435354
0.00375334
0.00328453
0.00290015
0.00254885
0.00218832
0.0018226
0.00147037
0.00115289
0.000884908
0.000671177
0.000508283
0.00038839
0.000302455
0.00024209
0.000200368
0.000171931
0.00015284
0.00014003
0.000131458
0.000125745
0.000121951
0.000119434
0.000117768
0.000116665
0.000115935
0.000115453
0.000115135
0.000114927
0.000114791
0.000114705
0.000114652
0.000187003
0.00017634
0.000172059
0.00017459
0.000183376
0.000196818
0.000212801
0.000229197
0.000244172
0.000256437
0.000265083
0.000269865
0.000270871
0.00026835
0.000262615
0.000254311
0.000244397
0.000233633
0.000222367
0.000210915
0.000199547
0.000188497
0.000178074
0.00016859
0.000160537
0.00015472
0.000152635
0.000157587
0.000178048
0.000234817
0.000356123
0.000540319
0.000726233
0.0008254
0.000899304
0.00103001
0.00119784
0.00133945
0.00155695
0.00186968
0.00228603
0.00275175
0.00320892
0.00359342
0.0038285
0.00387122
0.00371399
0.0033821
0.00292966
0.00242363
0.00192794
0.00148889
0.00112929
0.000852185
0.000648213
0.00050298
0.000401984
0.000332949
0.000286647
0.0002557
0.000234928
0.000221045
0.000211768
0.000205601
0.000201495
0.000198762
0.000196945
0.000195739
0.000194942
0.000194417
0.000194073
0.000193852
0.000193712
0.000193631
0.000193595
0.000190521
0.00018947
0.000202402
0.000229793
0.000269055
0.000314424
0.000360248
0.000401886
0.000436716
0.000463157
0.00047983
0.000487284
0.000486543
0.000479004
0.000466277
0.000450026
0.000432254
0.000413479
0.000394433
0.000375668
0.000357573
0.000340434
0.000324523
0.000310186
0.000297954
0.000288646
0.000283556
0.000284898
0.000297051
0.000329416
0.000397677
0.000513596
0.000665899
0.000816121
0.000943913
0.00105699
0.00117586
0.00142599
0.00196757
0.00281845
0.00390287
0.00505045
0.00605352
0.00673474
0.00698415
0.00678227
0.00619757
0.00535387
0.00439291
0.0034478
0.00261749
0.00194972
0.00144811
0.00108983
0.000842747
0.000676245
0.000565846
0.00049343
0.000445654
0.000413974
0.000392817
0.000378784
0.000369465
0.000363273
0.000359163
0.000356444
0.000354654
0.000353485
0.000352728
0.000352246
0.000351946
0.000351767
0.00035167
0.000351635
0.000351653
0.000201731
0.000228088
0.000291651
0.000388467
0.000504839
0.000622184
0.00072871
0.000813766
0.000873953
0.000909125
0.000921575
0.000915529
0.000895884
0.00086749
0.000834658
0.000800986
0.000768527
0.000737738
0.00070972
0.000685067
0.000664081
0.00064698
0.000634072
0.00062596
0.000623736
0.000629149
0.000644811
0.000674493
0.000723723
0.00080096
0.000919046
0.00109409
0.00134062
0.00166955
0.00209785
0.00266896
0.00352409
0.00511358
0.0073638
0.0100191
0.0126031
0.0146055
0.0156541
0.0156113
0.014556
0.0127393
0.0105087
0.00821504
0.00614056
0.00445234
0.00318981
0.00230442
0.00171078
0.00132358
0.00107473
0.000916459
0.000815086
0.000749407
0.000706792
0.000678662
0.000660305
0.000648323
0.000640518
0.000635484
0.000632286
0.0006303
0.0006291
0.00062841
0.000628042
0.000627877
0.000627834
0.000627866
0.000627946
0.000628065
0.000628226
0.000235405
0.000343317
0.000567559
0.000863623
0.00117132
0.00142225
0.00160038
0.00170237
0.00173609
0.00171687
0.00166222
0.0015882
0.00150744
0.00142899
0.00135874
0.00129992
0.00125218
0.00121623
0.00119252
0.00118134
0.00118329
0.00119966
0.0012328
0.00128665
0.00136747
0.00148472
0.00165243
0.00189107
0.00223021
0.00271241
0.00339859
0.00437508
0.00576181
0.00772326
0.0104881
0.0143261
0.0200025
0.0269454
0.03415
0.0400448
0.0432055
0.0429262
0.0394051
0.0335926
0.0266831
0.0198908
0.0140701
0.00960278
0.00645931
0.00438862
0.0030809
0.00227574
0.00178516
0.00148452
0.00129968
0.00118536
0.00111451
0.00106992
0.00104217
0.00102494
0.00101454
0.00100864
0.00100564
0.00100444
0.00100432
0.00100479
0.00100556
0.00100643
0.0010073
0.00100812
0.00100884
0.00100947
0.00101003
0.00101053
0.001011
0.000331317
0.000728342
0.00151363
0.00228423
0.00278119
0.00301653
0.00304862
0.00294717
0.00277446
0.00257523
0.00237763
0.00219776
0.00204373
0.00191879
0.00182333
0.00175646
0.00171647
0.00170296
0.00171687
0.00176087
0.00184023
0.00196391
0.00214637
0.00241048
0.00279215
0.00334757
0.0041647
0.00538065
0.00720726
0.00996604
0.0141302
0.020363
0.0295264
0.0426497
0.0609568
0.0843223
0.108968
0.130054
0.141623
0.139676
0.124331
0.0999381
0.0731387
0.0489707
0.0304948
0.0184585
0.0112322
0.0070374
0.00462943
0.00322783
0.00240949
0.00192912
0.00164655
0.00148083
0.00138499
0.00133192
0.00130531
0.00129437
0.00129196
0.0012931
0.0012962
0.00130108
0.00130678
0.00131267
0.00131828
0.00132335
0.00132778
0.00133155
0.0013347
0.00133727
0.00133936
0.00134105
0.00134241
0.00134354
0.00134445
)
;

boundaryField
{
    ibCylinder
    {
        type            immersedBoundaryEpsilonWallFunction;
        patchType       immersedBoundary;
        blending        stepwise;
        setDeadValue    true;
        deadValue       0.0002;
        value           nonuniform List<scalar> 0();
    }
    in
    {
        type            fixedValue;
        value           uniform 0.0002;
    }
    out
    {
        type            inletOutlet;
        inletValue      uniform 0.0002;
        value           nonuniform List<scalar> 
25
(
0.00135093
0.00101638
0.000633078
0.000356157
0.000197396
0.000117482
8.04147e-05
6.43033e-05
5.77144e-05
5.51734e-05
5.42467e-05
5.39303e-05
5.38458e-05
5.38891e-05
5.41302e-05
5.49006e-05
5.71387e-05
6.32074e-05
7.85473e-05
0.000114652
0.000193595
0.000351653
0.000628226
0.001011
0.00134445
)
;
    }
    top
    {
        type            zeroGradient;
    }
    bottom
    {
        type            zeroGradient;
    }
    frontAndBack
    {
        type            empty;
    }
}


// ************************************************************************* //
