/*--------------------------------*- C++ -*----------------------------------*\
| =========                 |                                                 |
| \\      /  F ield         | OpenFOAM: The Open Source CFD Toolbox           |
|  \\    /   O peration     | Version:  2206                                  |
|   \\  /    A nd           | Website:  www.openfoam.com                      |
|    \\/     M anipulation  |                                                 |
\*---------------------------------------------------------------------------*/
FoamFile
{
    version     2.0;
    format      ascii;
    arch        "LSB;label=32;scalar=64";
    class       volScalarField;
    location    "0.8";
    object      k;
}
// * * * * * * * * * * * * * * * * * * * * * * * * * * * * * * * * * * * * * //

dimensions      [0 2 -2 0 0 0 0];

internalField   nonuniform List<scalar> 
1875
(
0.000201437
0.000324204
0.000534389
0.000742726
0.000901907
0.00101084
0.00107306
0.00109631
0.00109096
0.00106717
0.0010334
0.000996112
0.000959875
0.000927704
0.000901416
0.000881991
0.000869799
0.00086537
0.000869397
0.000882883
0.000907359
0.000945132
0.000999624
0.00107583
0.00118092
0.00132502
0.00152223
0.00179191
0.00216025
0.00266213
0.00334294
0.00425969
0.00547981
0.00707972
0.00915575
0.0116769
0.0142724
0.0165168
0.017892
0.0179976
0.0167304
0.0143593
0.0114482
0.00852256
0.00601529
0.00417501
0.00292889
0.00211695
0.00159852
0.001266
0.00105429
0.000920085
0.000835688
0.000783283
0.000751499
0.000733206
0.000723741
0.000719718
0.000718744
0.000719071
0.000720146
0.000721919
0.000724026
0.000726222
0.000728326
0.000730236
0.000731909
0.000733336
0.000734528
0.000735507
0.000736301
0.000736937
0.000737448
0.000737855
0.000738163
0.000164351
0.000198899
0.000265719
0.000355403
0.000455545
0.000548295
0.000627275
0.000687794
0.0007281
0.000749492
0.000755297
0.000749708
0.000736844
0.000720281
0.000702838
0.000686468
0.000671635
0.000659227
0.000649893
0.000644057
0.000642064
0.000644315
0.000651373
0.000664082
0.000683688
0.000711951
0.00075127
0.000804843
0.000876925
0.000973272
0.00110177
0.00127305
0.00150083
0.00180311
0.00220575
0.00274339
0.00351451
0.00445251
0.00545705
0.00635377
0.00696069
0.00715043
0.0068872
0.00623708
0.00532479
0.00431638
0.00336109
0.00255577
0.00193504
0.00148797
0.00117999
0.000973879
0.000838044
0.000748459
0.000689589
0.000650882
0.000625603
0.000608969
0.000598242
0.000591395
0.000587157
0.000584689
0.000583399
0.000582857
0.000582767
0.000582936
0.000583236
0.000583588
0.000583944
0.000584278
0.000584578
0.000584841
0.000585072
0.000585283
0.000585501
0.000151073
0.000159638
0.000179345
0.000210203
0.000249831
0.000293709
0.000338207
0.000379058
0.000413814
0.000440903
0.000459671
0.000470471
0.000474312
0.000472595
0.000466866
0.000458664
0.000449001
0.000438262
0.000427206
0.000416349
0.00040603
0.000396477
0.000387879
0.000380473
0.000374618
0.000370864
0.000370012
0.00037323
0.000382329
0.000400278
0.000431617
0.000481023
0.000549448
0.000632777
0.000726928
0.000833467
0.000974415
0.00122523
0.00158598
0.00203059
0.00249786
0.00291048
0.00319773
0.00331428
0.00324602
0.00301177
0.00265767
0.00224365
0.00182907
0.00145964
0.00115878
0.000929859
0.000763898
0.000647292
0.000566931
0.000512512
0.000475541
0.000450234
0.000433029
0.000421226
0.000413287
0.000407982
0.000404466
0.000402174
0.000400709
0.0003998
0.000399255
0.000398947
0.000398789
0.000398725
0.000398718
0.000398744
0.000398792
0.000398866
0.000398993
0.000146396
0.000145628
0.000149332
0.000157912
0.000171254
0.000188125
0.000206968
0.000226171
0.000244493
0.000260821
0.000273989
0.00028359
0.000289492
0.000291843
0.000291029
0.00028762
0.000282478
0.000275826
0.000268091
0.000259644
0.000250793
0.000241795
0.00023289
0.000224349
0.00021654
0.000209997
0.00020557
0.000204755
0.000210549
0.000229113
0.000270349
0.000341337
0.000433249
0.00052111
0.000590193
0.0006319
0.000648197
0.000672834
0.000750058
0.000887757
0.00108134
0.00130705
0.00152902
0.00171006
0.00181897
0.00183796
0.00176675
0.00162027
0.00142335
0.00120556
0.000994512
0.000809141
0.000658041
0.000541568
0.00045534
0.000393325
0.000349728
0.000319612
0.000298761
0.000284318
0.000274308
0.000267465
0.000262811
0.000259664
0.00025755
0.000256141
0.000255212
0.000254607
0.000254219
0.000253975
0.000253827
0.000253742
0.000253701
0.0002537
0.000253766
0.000144841
0.000140416
0.000138242
0.000138443
0.00014099
0.000145614
0.000151817
0.000158967
0.000166368
0.000173389
0.00017944
0.000184167
0.00018734
0.000188819
0.00018853
0.000186621
0.000183467
0.000179406
0.00017461
0.000169268
0.00016357
0.000157706
0.000151925
0.000146506
0.000141868
0.000138693
0.000138234
0.000143175
0.000159881
0.000202562
0.000291274
0.000428785
0.00057528
0.000673945
0.000751738
0.00082583
0.000870736
0.000882817
0.000913007
0.000957081
0.00101958
0.00108566
0.00114875
0.00120752
0.00125082
0.00126618
0.00124342
0.00117851
0.00107605
0.000947627
0.000808626
0.000673759
0.000553554
0.00045335
0.000374042
0.0003137
0.00026915
0.000237027
0.000214446
0.000198718
0.000187758
0.000180184
0.000174978
0.000171435
0.000169033
0.000167411
0.000166321
0.000165594
0.000165111
0.000164793
0.000164587
0.000164455
0.000164374
0.000164334
0.000164355
0.000144311
0.000138539
0.00013404
0.000130895
0.000129079
0.000128482
0.00012891
0.000130096
0.000131725
0.000133498
0.000135131
0.000136366
0.000137007
0.000136923
0.00013604
0.000134356
0.000132003
0.00012926
0.000126219
0.000122978
0.00011962
0.000116299
0.000113236
0.000110733
0.000109292
0.000109842
0.000114375
0.000127821
0.000163049
0.000248519
0.00040927
0.000612008
0.000789899
0.000843374
0.000992263
0.00147457
0.00223078
0.00275624
0.00293534
0.00298139
0.00301045
0.00275621
0.0023212
0.00190613
0.0015842
0.00135263
0.00118588
0.00105481
0.000934114
0.000814839
0.000696542
0.000583633
0.000481569
0.000394148
0.000322721
0.000266599
0.000223887
0.000192215
0.000169237
0.000152886
0.000141476
0.00013356
0.000128098
0.000124359
0.000121816
0.000120096
0.000118938
0.000118161
0.000117642
0.000117297
0.000117068
0.000116917
0.00011682
0.000116763
0.000116751
0.000144113
0.000137843
0.000132434
0.000127912
0.000124258
0.000121415
0.000119284
0.000117733
0.000116603
0.00011574
0.000114998
0.000114235
0.000113336
0.000112203
0.000110801
0.00010911
0.000107164
0.00010512
0.000103033
0.000100965
9.90031e-05
9.73224e-05
9.60952e-05
9.56555e-05
9.66417e-05
0.000100376
0.000110037
0.000134295
0.000196899
0.000344923
0.000573314
0.000829963
0.00108181
0.00100511
0.000981646
0.00108812
0.00155973
0.00206437
0.0022311
0.0026903
0.00649133
0.00663648
0.00518669
0.00375273
0.0026939
0.00197931
0.001511
0.00120174
0.00098204
0.000812546
0.000672638
0.000553161
0.000451194
0.000366105
0.000297167
0.000242939
0.0002014
0.000170308
0.000147499
0.000131055
0.000119387
0.000111239
0.000105618
0.000101759
9.91306e-05
9.73513e-05
9.61534e-05
9.53502e-05
9.48137e-05
9.44565e-05
9.42193e-05
9.40625e-05
9.39593e-05
9.38941e-05
9.38629e-05
0.000144032
0.000137566
0.000131797
0.000126709
0.000122273
0.000118444
0.000115164
0.000112356
0.000109935
0.000107813
0.000105909
0.000104143
0.000102451
0.000100778
9.90933e-05
9.73837e-05
9.56676e-05
9.40165e-05
9.24711e-05
9.10876e-05
8.99486e-05
8.91899e-05
8.90376e-05
8.99058e-05
9.26204e-05
9.90485e-05
0.000114081
0.000151977
0.000251973
0.000474756
0.000736107
0.00112134
0.000932207
0.000929717
0.00015
0.00015
0.00015
0.00015
0.00015
0.00299252
0.0044572
0.00615125
0.00538379
0.00423198
0.00317674
0.00236769
0.00178851
0.00137676
0.00108346
0.00086467
0.000694476
0.000558119
0.000447636
0.000358667
0.000288182
0.000233497
0.000191898
0.000160843
0.000138053
0.000121581
0.00010984
0.000101573
9.5824e-05
9.18725e-05
8.91742e-05
8.73434e-05
8.61088e-05
8.52803e-05
8.47268e-05
8.43584e-05
8.41141e-05
8.39525e-05
8.3846e-05
8.37767e-05
8.37353e-05
0.000143994
0.000137446
0.000131526
0.000126201
0.000121429
0.000117166
0.000113365
0.000109976
0.000106945
0.000104218
0.000101748
9.94874e-05
9.7397e-05
9.54455e-05
9.36119e-05
9.18868e-05
9.02799e-05
8.88241e-05
8.75506e-05
8.65105e-05
8.57883e-05
8.55287e-05
8.59929e-05
8.76833e-05
9.16599e-05
0.000100475
0.000121245
0.000175664
0.000322098
0.000626391
0.0009435
0.000838661
0.00015
0.00015
0.00015
0.00015
0.00015
0.00015
0.00015
0.00015
0.00282841
0.00297294
0.00311231
0.00305803
0.00263861
0.00216182
0.00173628
0.001387
0.0011088
0.000886473
0.000707788
0.000563682
0.000447865
0.000355888
0.000284047
0.000228933
0.000187361
0.00015649
0.000133885
0.000117554
0.000105892
9.76555e-05
9.18951e-05
8.79035e-05
8.51644e-05
8.3297e-05
8.20318e-05
8.11792e-05
8.06077e-05
8.02264e-05
7.9973e-05
7.98052e-05
7.96944e-05
7.96215e-05
7.95732e-05
0.000143976
0.000137388
0.000131401
0.00012597
0.000121049
0.000116591
0.000112554
0.000108896
0.000105575
0.000102556
9.9806e-05
9.72954e-05
9.49992e-05
9.28969e-05
9.09741e-05
8.92231e-05
8.76485e-05
8.62669e-05
8.51051e-05
8.42118e-05
8.36746e-05
8.3652e-05
8.44416e-05
8.66385e-05
9.15513e-05
0.000102485
0.000129113
0.000201822
0.000402113
0.000791786
0.000798198
0.000780154
0.00015
0.00015
0.00015
0.00015
0.00015
0.00015
0.00015
0.00015
0.00015
0.00153279
0.00141426
0.00156044
0.00166432
0.00157796
0.0014039
0.00120572
0.00101137
0.000832936
0.000676113
0.000542797
0.000432724
0.000344349
0.000275157
0.000222127
0.000182195
0.000152571
0.000130871
0.000115157
0.000103896
9.59019e-05
9.02771e-05
8.63532e-05
8.36364e-05
8.17695e-05
8.04952e-05
7.96304e-05
7.90469e-05
7.86552e-05
7.83936e-05
7.82196e-05
7.81044e-05
7.80278e-05
7.79749e-05
0.000143966
0.000137359
0.00013134
0.000125859
0.000120868
0.000116322
0.000112176
0.000108392
0.000104935
0.000101776
9.88884e-05
9.62516e-05
9.38472e-05
9.16604e-05
8.96798e-05
8.78988e-05
8.6319e-05
8.49505e-05
8.38172e-05
8.2967e-05
8.24907e-05
8.25591e-05
8.35018e-05
8.59947e-05
9.15728e-05
0.000104253
0.000136249
0.000227339
0.000487703
0.000955545
0.000807985
0.00015
0.00015
0.00015
0.00015
0.00015
0.00015
0.00015
0.00015
0.00015
0.00015
0.00015
0.000714105
0.000734912
0.000889798
0.000995064
0.00101013
0.000947116
0.000843235
0.000723458
0.00060351
0.00049347
0.000398674
0.000320704
0.000258743
0.000210812
0.000174476
0.000147358
0.000127372
0.0001128
0.000102279
9.47502e-05
8.94071e-05
8.56454e-05
8.30168e-05
8.11934e-05
7.99372e-05
7.90773e-05
7.84923e-05
7.80967e-05
7.78306e-05
7.76526e-05
7.75341e-05
7.74548e-05
7.7399e-05
0.000143961
0.000137346
0.000131311
0.000125807
0.000120785
0.000116199
0.000112005
0.000108166
0.000104648
0.000101425
9.84751e-05
9.57789e-05
9.33219e-05
9.10915e-05
8.90776e-05
8.72739e-05
8.56803e-05
8.43043e-05
8.3168e-05
8.23191e-05
8.18506e-05
8.19413e-05
8.29424e-05
8.55867e-05
9.15719e-05
0.000105457
0.00014153
0.000248133
0.000559708
0.00100024
0.000831437
0.00015
0.00015
0.00015
0.00015
0.00015
0.00015
0.00015
0.00015
0.00015
0.00015
0.00015
0.000400015
0.000413591
0.00050604
0.000625104
0.000709397
0.000730396
0.000689644
0.000614996
0.000527039
0.000439463
0.000360573
0.000294092
0.000240408
0.000198345
0.000166119
0.000141836
0.000123772
0.00011048
0.000100791
9.37928e-05
8.87794e-05
8.52168e-05
8.27048e-05
8.09466e-05
7.97249e-05
7.88818e-05
7.83038e-05
7.79101e-05
7.76436e-05
7.74643e-05
7.73441e-05
7.72634e-05
7.7206e-05
0.00014396
0.000137341
0.000131302
0.000125791
0.000120761
0.000116163
0.000111955
0.0001081
0.000104565
0.000101324
9.83547e-05
9.56408e-05
9.31676e-05
9.09232e-05
8.8898e-05
8.70856e-05
8.54849e-05
8.41028e-05
8.2961e-05
8.21071e-05
8.16347e-05
8.17253e-05
8.27381e-05
8.5427e-05
9.15529e-05
0.000105896
0.000143653
0.000257141
0.000590516
0.000974888
0.000829626
0.00015
0.00015
0.00015
0.00015
0.00015
0.00015
0.00015
0.00015
0.00015
0.00015
0.00015
0.000301207
0.000327353
0.000393875
0.00049608
0.000588143
0.000632908
0.000617152
0.000560631
0.000486562
0.000409319
0.00033819
0.00027782
0.000228854
0.000190275
0.000160586
0.000138109
0.000121304
0.000108871
9.97577e-05
9.31356e-05
8.83638e-05
8.49529e-05
8.25339e-05
8.08312e-05
7.96415e-05
7.88162e-05
7.82476e-05
7.78584e-05
7.75938e-05
7.74149e-05
7.72947e-05
7.72135e-05
7.71555e-05
0.000143961
0.000137346
0.000131311
0.000125807
0.000120785
0.000116199
0.000112005
0.000108165
0.000104647
0.000101424
9.84722e-05
9.57744e-05
9.33151e-05
9.10819e-05
8.9065e-05
8.72581e-05
8.56612e-05
8.4282e-05
8.31426e-05
8.22907e-05
8.18194e-05
8.19072e-05
8.29052e-05
8.55451e-05
9.15193e-05
0.00010536
0.000141247
0.000247292
0.000559191
0.000999331
0.000833432
0.00015
0.00015
0.00015
0.00015
0.00015
0.00015
0.00015
0.00015
0.00015
0.00015
0.00015
0.000391977
0.000403941
0.000493298
0.000609213
0.000691494
0.000712269
0.000671338
0.000596537
0.000509341
0.000423345
0.0003466
0.000282512
0.000231201
0.00019129
0.000160887
0.000138068
0.000121129
0.000108669
9.95789e-05
9.2997e-05
8.82663e-05
8.48907e-05
8.24994e-05
8.08171e-05
7.96418e-05
7.88262e-05
7.8264e-05
7.7879e-05
7.76169e-05
7.74395e-05
7.73201e-05
7.72393e-05
7.71815e-05
0.000143966
0.00013736
0.00013134
0.000125859
0.000120868
0.000116322
0.000112176
0.000108391
0.000104933
0.000101771
9.88794e-05
9.62373e-05
9.3826e-05
9.1631e-05
8.96413e-05
8.7851e-05
8.62622e-05
8.48853e-05
8.37444e-05
8.28878e-05
8.24062e-05
8.247e-05
8.34081e-05
8.58942e-05
9.14516e-05
0.000104043
0.000135653
0.000225458
0.000485072
0.000954716
0.00081306
0.00015
0.00015
0.00015
0.00015
0.00015
0.00015
0.00015
0.00015
0.00015
0.00015
0.00015
0.000686406
0.000702633
0.000852109
0.000955102
0.000969882
0.000908232
0.000805544
0.000688206
0.000571581
0.000465494
0.000374992
0.00030135
0.000243456
0.000199117
0.00016579
0.00014108
0.000122947
0.000109753
0.000100223
9.33882e-05
8.85177e-05
8.50696e-05
8.26436e-05
8.09476e-05
7.97692e-05
7.89554e-05
7.83966e-05
7.8015e-05
7.7756e-05
7.75811e-05
7.74634e-05
7.73839e-05
7.73268e-05
0.000143976
0.000137388
0.000131401
0.00012597
0.000121049
0.000116591
0.000112553
0.000108893
0.000105569
0.000102543
9.97835e-05
9.72595e-05
9.49461e-05
9.28235e-05
9.08786e-05
8.91054e-05
8.75103e-05
8.61105e-05
8.49337e-05
8.40293e-05
8.34849e-05
8.34586e-05
8.42472e-05
8.64422e-05
9.13392e-05
0.000102182
0.000128397
0.000199703
0.000398648
0.00079489
0.000805499
0.000777733
0.00015
0.00015
0.00015
0.00015
0.00015
0.00015
0.00015
0.00015
0.00015
0.00147905
0.00132292
0.00147148
0.00157913
0.00149996
0.00133106
0.00113974
0.000953132
0.000782321
0.000632737
0.000506274
0.000402656
0.000320239
0.000256355
0.000207861
0.000171651
0.000144964
0.000125505
0.000111447
0.000101373
9.42072e-05
8.91443e-05
8.55918e-05
8.31141e-05
8.13965e-05
8.02127e-05
7.9401e-05
7.88471e-05
7.8471e-05
7.82169e-05
7.80459e-05
7.79312e-05
7.78539e-05
7.77983e-05
0.000143994
0.000137446
0.000131527
0.000126201
0.000121429
0.000117166
0.000113364
0.000109971
0.000106932
0.000104192
0.0001017
9.94092e-05
9.72805e-05
9.52841e-05
9.34024e-05
9.16296e-05
8.99797e-05
8.84873e-05
8.71854e-05
8.61268e-05
8.53964e-05
8.51382e-05
8.56118e-05
8.7316e-05
9.12986e-05
0.000100059
0.00012051
0.000173817
0.000319007
0.000630372
0.00095014
0.000839874
0.00015
0.00015
0.00015
0.00015
0.00015
0.00015
0.00015
0.00015
0.00276274
0.00281863
0.00288508
0.00287425
0.00248469
0.00203355
0.0016306
0.00130004
0.00103687
0.000826479
0.000657695
0.000522235
0.000414192
0.000329187
0.000263424
0.000213413
0.00017596
0.000148293
0.000128098
0.000113525
0.000103111
9.5734e-05
9.05518e-05
8.69387e-05
8.44404e-05
8.27219e-05
8.15459e-05
8.0745e-05
8.0202e-05
7.98352e-05
7.95885e-05
7.94231e-05
7.93125e-05
7.92382e-05
7.91846e-05
0.000144032
0.000137566
0.000131797
0.00012671
0.000122275
0.000118447
0.000115165
0.000112352
0.000109916
0.000107767
0.000105819
0.000103992
0.000102221
0.000100459
9.86782e-05
9.68751e-05
9.50756e-05
9.33558e-05
9.17594e-05
9.03454e-05
8.91975e-05
8.84499e-05
8.83254e-05
8.92343e-05
9.19924e-05
9.84283e-05
0.00011329
0.000150477
0.000249496
0.000475153
0.000744082
0.00113177
0.000951592
0.000943096
0.00015
0.00015
0.00015
0.00015
0.00015
0.00295591
0.00423322
0.0058202
0.00506933
0.00399901
0.00300773
0.00224189
0.00169099
0.00129734
0.00101614
0.00080641
0.000644152
0.000515469
0.000412525
0.000330689
0.000266582
0.00021729
0.000180025
0.000152306
0.000131989
0.000117293
0.00010679
9.93642e-05
9.41717e-05
9.05782e-05
8.81043e-05
8.64109e-05
8.52579e-05
8.44762e-05
8.39483e-05
8.3593e-05
8.33546e-05
8.31951e-05
8.30887e-05
8.30174e-05
8.29663e-05
0.000144113
0.000137843
0.000132434
0.000127914
0.000124265
0.000121426
0.000119299
0.000117741
0.000116587
0.000115673
0.000114848
0.000113969
0.000112924
0.000111625
0.00011005
0.000108192
0.000106099
0.000103938
0.000101766
9.96507e-05
9.76791e-05
9.60237e-05
9.48516e-05
9.44898e-05
9.55669e-05
9.93799e-05
0.000109021
0.000132946
0.000195006
0.000344782
0.0005785
0.000843534
0.00111121
0.00103571
0.00100174
0.00110778
0.00159832
0.00211709
0.00225999
0.00261956
0.00607691
0.00632527
0.00503811
0.00368226
0.00265132
0.00194125
0.00146879
0.00115409
0.000930811
0.000760994
0.000624056
0.000510074
0.000414999
0.000337095
0.000274804
0.000226223
0.00018918
0.000161493
0.000141158
0.000126452
0.000115967
0.000108605
0.000103489
9.99504e-05
9.75201e-05
9.58607e-05
9.47331e-05
9.39701e-05
9.34554e-05
9.31095e-05
9.28776e-05
9.27228e-05
9.26197e-05
9.25513e-05
9.25032e-05
0.000144311
0.000138539
0.000134042
0.000130904
0.000129102
0.000128523
0.000128966
0.000130148
0.000131737
0.000133419
0.000134902
0.00013593
0.000136318
0.000135953
0.000134785
0.000132836
0.000130256
0.000127337
0.000124178
0.000120877
0.000117515
0.00011424
0.000111266
0.00010888
0.000107575
0.000108262
0.000112887
0.00012627
0.000161305
0.000247867
0.000413045
0.000624239
0.000820122
0.000885917
0.00100475
0.00147319
0.00224839
0.00280283
0.00300446
0.00304805
0.00304684
0.00279599
0.00237524
0.00195407
0.00160964
0.00135013
0.00115842
0.00100945
0.00087889
0.000757227
0.000642313
0.000536392
0.000442853
0.000363913
0.00029996
0.000249897
0.0002118
0.000183476
0.000162836
0.000148064
0.000137691
0.000130435
0.000125389
0.000121907
0.00011952
0.000117891
0.000116786
0.000116038
0.000115534
0.000115197
0.000114971
0.000114822
0.000114724
0.000114661
0.000114622
0.000144841
0.000140416
0.00013825
0.00013847
0.000141056
0.000145731
0.000151975
0.000159124
0.000166453
0.000173307
0.000179093
0.000183468
0.000186231
0.000187277
0.00018657
0.000184293
0.000180841
0.000176565
0.00017164
0.00016625
0.000160575
0.000154789
0.000149127
0.000143854
0.000139375
0.000136358
0.000136035
0.000141042
0.000157755
0.000201055
0.000292808
0.000437484
0.00059668
0.000706273
0.000777027
0.000854148
0.000920477
0.000949188
0.000982235
0.00102141
0.00107127
0.00111984
0.00116282
0.00119775
0.0012153
0.0012074
0.0011679
0.0010949
0.000992928
0.00087179
0.000744219
0.00062222
0.000514242
0.000424428
0.00035326
0.00029892
0.000258585
0.000229311
0.0002086
0.000194054
0.000183828
0.000176706
0.000171772
0.000168388
0.000166076
0.000164503
0.000163438
0.000162722
0.000162244
0.000161927
0.000161719
0.000161585
0.000161501
0.000161453
0.000161435
0.000146395
0.00014563
0.000149353
0.000157986
0.000171423
0.000188407
0.000207332
0.000226522
0.000244688
0.000260699
0.000273403
0.000282437
0.00028773
0.000289489
0.000288152
0.000284321
0.000278874
0.000272036
0.000264215
0.000255766
0.000246975
0.000238078
0.000229296
0.000220884
0.000213194
0.000206753
0.000202396
0.000201605
0.000207385
0.000226178
0.000268884
0.000344138
0.000444085
0.000540889
0.000614143
0.000660734
0.000683158
0.000707978
0.000778466
0.0009017
0.0010728
0.00126978
0.00146053
0.00161249
0.00169918
0.0017064
0.00163517
0.00149917
0.00131997
0.00112305
0.000932377
0.000764471
0.000626967
0.000520328
0.000440827
0.000383217
0.000342409
0.000314001
0.000294153
0.0002803
0.000270626
0.000263965
0.000259403
0.000256297
0.000254195
0.000252784
0.000251847
0.000251231
0.000250833
0.000250579
0.000250423
0.000250332
0.000250285
0.000250272
0.000250297
0.000151073
0.000159646
0.000179403
0.000210389
0.000250221
0.00029431
0.000338914
0.000379661
0.000414055
0.000440542
0.000458548
0.000468532
0.000471601
0.000469231
0.000463003
0.000454461
0.000444604
0.000433784
0.000422722
0.000411906
0.000401646
0.000392146
0.000383577
0.000376157
0.000370232
0.000366335
0.000365249
0.000368125
0.000376759
0.000394201
0.000425357
0.000475635
0.00054658
0.000633314
0.000729698
0.000836621
0.000974423
0.00121453
0.00155415
0.00196771
0.00239702
0.00277073
0.00302563
0.00312308
0.0030529
0.00283367
0.00250707
0.00212628
0.00174408
0.00140182
0.00112127
0.000906222
0.000749096
0.00063781
0.000560513
0.000507796
0.000471702
0.000446817
0.000429794
0.000418044
0.00041009
0.00040474
0.00040117
0.000398822
0.000397307
0.000396354
0.000395772
0.000395433
0.000395251
0.000395168
0.000395146
0.000395161
0.000395203
0.00039527
0.000395379
0.000164353
0.000198932
0.000265883
0.000355853
0.000456373
0.000549398
0.000628356
0.000688458
0.000727993
0.000748407
0.000753199
0.000746708
0.000733136
0.000716081
0.00069834
0.000681825
0.000666942
0.000654534
0.000645215
0.000639375
0.000637336
0.000639475
0.000646329
0.000658715
0.000677839
0.000705407
0.000743742
0.000795937
0.00086611
0.000959861
0.00108495
0.00125195
0.00147445
0.00176981
0.00216246
0.00268494
0.00343576
0.00434468
0.00531186
0.00616813
0.00673999
0.00690905
0.00664606
0.00601803
0.00514528
0.00418392
0.0032723
0.00250116
0.00190382
0.0014711
0.00117114
0.000969149
0.000835218
0.000746374
0.000687677
0.000648871
0.000623405
0.000606552
0.000595604
0.000588552
0.000584142
0.000581537
0.000580137
0.000579506
0.000579345
0.000579456
0.00057971
0.000580026
0.000580354
0.000580667
0.000580952
0.000581207
0.00058144
0.000581671
0.000581934
0.000201462
0.000324359
0.000534924
0.000743797
0.000903358
0.00101224
0.0010739
0.00109618
0.00108968
0.00106477
0.00103008
0.000992113
0.000955442
0.000923032
0.000896637
0.000877177
0.00086497
0.000860512
0.000864468
0.000877818
0.000902069
0.000939505
0.000993517
0.00106906
0.00117325
0.00131615
0.00151176
0.00177934
0.00214495
0.00264336
0.00331993
0.00423175
0.00544664
0.0070415
0.00911309
0.0116307
0.0142217
0.0164604
0.0178284
0.0179266
0.0166546
0.0142839
0.0113803
0.00846793
0.00597663
0.00415098
0.00291588
0.00211092
0.00159624
0.00126528
0.00105395
0.00091954
0.000834722
0.000781847
0.000749619
0.00073093
0.000721124
0.000716814
0.000715602
0.000715742
0.000716673
0.000718333
0.000720351
0.000722477
0.000724527
0.000726395
0.000728035
0.000729438
0.000730611
0.000731577
0.000732365
0.000733006
0.000733543
0.000734022
0.000734494
)
;

boundaryField
{
    ibCylinder
    {
        type            immersedBoundaryKqRWallFunction;
        patchType       immersedBoundary;
        setDeadValue    true;
        deadValue       0.00015;
        value           nonuniform List<scalar> 0();
    }
    in
    {
        type            fixedValue;
        value           uniform 0.00015;
    }
    out
    {
        type            inletOutlet;
        inletValue      uniform 0.00015;
        value           nonuniform List<scalar> 
25
(
0.000738163
0.000585501
0.000398993
0.000253766
0.000164355
0.000116751
9.38629e-05
8.37353e-05
7.95732e-05
7.79749e-05
7.7399e-05
7.7206e-05
7.71555e-05
7.71815e-05
7.73268e-05
7.77983e-05
7.91846e-05
8.29663e-05
9.25032e-05
0.000114622
0.000161435
0.000250297
0.000395379
0.000581934
0.000734494
)
;
    }
    top
    {
        type            zeroGradient;
    }
    bottom
    {
        type            zeroGradient;
    }
    frontAndBack
    {
        type            empty;
    }
}


// ************************************************************************* //
