/*--------------------------------*- C++ -*----------------------------------*\
| =========                 |                                                 |
| \\      /  F ield         | OpenFOAM: The Open Source CFD Toolbox           |
|  \\    /   O peration     | Version:  2206                                  |
|   \\  /    A nd           | Website:  www.openfoam.com                      |
|    \\/     M anipulation  |                                                 |
\*---------------------------------------------------------------------------*/
FoamFile
{
    version     2.0;
    format      ascii;
    arch        "LSB;label=32;scalar=64";
    class       volScalarField;
    location    "0.8";
    object      nut;
}
// * * * * * * * * * * * * * * * * * * * * * * * * * * * * * * * * * * * * * //

dimensions      [0 2 -1 0 0 0 0];

internalField   nonuniform List<scalar> 
1875
(
1.10249e-05
1.29964e-05
1.69985e-05
2.17656e-05
2.63615e-05
3.0521e-05
3.40092e-05
3.66852e-05
3.85462e-05
3.96911e-05
4.02704e-05
4.04452e-05
4.03619e-05
4.01412e-05
3.98745e-05
3.96246e-05
3.94342e-05
3.93433e-05
3.93882e-05
3.96026e-05
4.00207e-05
4.06806e-05
4.16285e-05
4.29216e-05
4.46323e-05
4.685e-05
4.96853e-05
5.32753e-05
5.77939e-05
6.3468e-05
7.05956e-05
7.95632e-05
9.08518e-05
0.000105056
0.000123029
0.00014477
0.000167429
0.000187886
0.000202412
0.000207547
0.000201319
0.000184297
0.000159873
0.000132159
0.00010561
8.40068e-05
6.79665e-05
5.67418e-05
4.92735e-05
4.44148e-05
4.13356e-05
3.93681e-05
3.80731e-05
3.71947e-05
3.65993e-05
3.62151e-05
3.5992e-05
3.58811e-05
3.58398e-05
3.58319e-05
3.58465e-05
3.58829e-05
3.59312e-05
3.59843e-05
3.60368e-05
3.60854e-05
3.61286e-05
3.61659e-05
3.61973e-05
3.62234e-05
3.62447e-05
3.62622e-05
3.62768e-05
3.62896e-05
3.63007e-05
1.03271e-05
1.03733e-05
1.12051e-05
1.31815e-05
1.59741e-05
1.90586e-05
2.21581e-05
2.5021e-05
2.74604e-05
2.93815e-05
3.07749e-05
3.16929e-05
3.22205e-05
3.24533e-05
3.2482e-05
3.23806e-05
3.21757e-05
3.19149e-05
3.16364e-05
3.13661e-05
3.11204e-05
3.0908e-05
3.07322e-05
3.05936e-05
3.04918e-05
3.0428e-05
3.04084e-05
3.04511e-05
3.05962e-05
3.09198e-05
3.15437e-05
3.26255e-05
3.43368e-05
3.6871e-05
4.05107e-05
4.57268e-05
5.36676e-05
6.37707e-05
7.53064e-05
8.67188e-05
9.61137e-05
0.000101787
0.00010268
9.87316e-05
9.06993e-05
8.01757e-05
6.90042e-05
5.87531e-05
5.03574e-05
4.40996e-05
3.97572e-05
3.68824e-05
3.49909e-05
3.36847e-05
3.27367e-05
3.20168e-05
3.14758e-05
3.10712e-05
3.07813e-05
3.05794e-05
3.04448e-05
3.03602e-05
3.03113e-05
3.02866e-05
3.02774e-05
3.02777e-05
3.02832e-05
3.02915e-05
3.03006e-05
3.03096e-05
3.03181e-05
3.03259e-05
3.03333e-05
3.03417e-05
3.03559e-05
1.01822e-05
1.00564e-05
9.93017e-06
1.02484e-05
1.11466e-05
1.25038e-05
1.41527e-05
1.59074e-05
1.763e-05
1.92076e-05
2.05579e-05
2.16374e-05
2.24361e-05
2.29698e-05
2.3272e-05
2.33875e-05
2.33485e-05
2.31687e-05
2.28827e-05
2.25179e-05
2.20941e-05
2.16241e-05
2.11159e-05
2.05752e-05
2.00083e-05
1.94255e-05
1.88455e-05
1.83032e-05
1.78658e-05
1.7658e-05
1.7868e-05
1.86428e-05
1.98733e-05
2.11656e-05
2.21618e-05
2.27748e-05
2.34044e-05
2.52861e-05
2.90858e-05
3.46523e-05
4.12738e-05
4.79572e-05
5.36677e-05
5.75508e-05
5.90619e-05
5.80767e-05
5.49206e-05
5.02626e-05
4.49443e-05
3.97724e-05
3.53096e-05
3.18046e-05
2.92389e-05
2.74332e-05
2.61672e-05
2.52707e-05
2.45946e-05
2.40627e-05
2.3651e-05
2.33345e-05
2.31018e-05
2.2935e-05
2.28183e-05
2.2739e-05
2.26868e-05
2.26536e-05
2.26334e-05
2.26219e-05
2.2616e-05
2.26136e-05
2.26135e-05
2.26147e-05
2.2617e-05
2.26212e-05
2.26316e-05
1.0124e-05
1.00739e-05
9.91794e-06
9.77287e-06
9.82253e-06
1.01469e-05
1.07191e-05
1.14675e-05
1.23172e-05
1.31946e-05
1.40254e-05
1.47621e-05
1.53707e-05
1.58324e-05
1.61425e-05
1.63093e-05
1.63579e-05
1.62909e-05
1.61249e-05
1.58765e-05
1.55615e-05
1.51943e-05
1.47885e-05
1.43592e-05
1.39255e-05
1.35163e-05
1.31795e-05
1.30051e-05
1.31807e-05
1.40962e-05
1.63908e-05
2.05431e-05
2.59841e-05
3.10025e-05
3.43238e-05
3.51281e-05
3.31517e-05
2.89085e-05
2.52291e-05
2.39132e-05
2.49848e-05
2.76733e-05
3.11356e-05
3.4614e-05
3.74448e-05
3.91309e-05
3.94241e-05
3.83372e-05
3.61042e-05
3.31315e-05
2.99007e-05
2.68283e-05
2.41856e-05
2.20832e-05
2.05048e-05
1.93622e-05
1.85493e-05
1.79677e-05
1.75285e-05
1.71891e-05
1.69264e-05
1.67287e-05
1.65832e-05
1.64784e-05
1.64046e-05
1.63538e-05
1.63197e-05
1.62972e-05
1.62829e-05
1.62741e-05
1.62689e-05
1.62662e-05
1.62653e-05
1.62665e-05
1.6273e-05
1.00966e-05
1.0063e-05
9.99718e-06
9.88286e-06
9.76205e-06
9.70468e-06
9.75722e-06
9.92834e-06
1.01971e-05
1.05294e-05
1.08864e-05
1.12361e-05
1.15519e-05
1.18122e-05
1.20008e-05
1.21129e-05
1.21558e-05
1.21382e-05
1.20649e-05
1.19436e-05
1.17833e-05
1.15946e-05
1.13921e-05
1.11941e-05
1.1029e-05
1.09441e-05
1.10272e-05
1.14632e-05
1.267e-05
1.55741e-05
2.16925e-05
3.16955e-05
4.34547e-05
5.30691e-05
5.95385e-05
6.31486e-05
6.20554e-05
5.79774e-05
5.23847e-05
4.62654e-05
4.11279e-05
3.72408e-05
3.45744e-05
3.31579e-05
3.26128e-05
3.2428e-05
3.21217e-05
3.13497e-05
2.996e-05
2.799e-05
2.5629e-05
2.31378e-05
2.0762e-05
1.8679e-05
1.69779e-05
1.56695e-05
1.47107e-05
1.4031e-05
1.35617e-05
1.32298e-05
1.29837e-05
1.27985e-05
1.26587e-05
1.2555e-05
1.2479e-05
1.24244e-05
1.23859e-05
1.23592e-05
1.23412e-05
1.23292e-05
1.23215e-05
1.23166e-05
1.23138e-05
1.2313e-05
1.2316e-05
1.00835e-05
1.00417e-05
1.00019e-05
9.94829e-06
9.87358e-06
9.78845e-06
9.71503e-06
9.67397e-06
9.67573e-06
9.71919e-06
9.79508e-06
9.88943e-06
9.98756e-06
1.00763e-05
1.01451e-05
1.01873e-05
1.02028e-05
1.01988e-05
1.01774e-05
1.01424e-05
1.00977e-05
1.00517e-05
1.00184e-05
1.00188e-05
1.0089e-05
1.02959e-05
1.07765e-05
1.18401e-05
1.42541e-05
1.98903e-05
3.13666e-05
4.78961e-05
6.57867e-05
7.97704e-05
8.59784e-05
0.000101175
0.000120041
0.000130208
0.000132196
0.000131377
0.000130457
0.000117419
9.53096e-05
7.38438e-05
5.72983e-05
4.60184e-05
3.87191e-05
3.38993e-05
3.03125e-05
2.72759e-05
2.44695e-05
2.18175e-05
1.93715e-05
1.72148e-05
1.54093e-05
1.39768e-05
1.28996e-05
1.21304e-05
1.1605e-05
1.12563e-05
1.10262e-05
1.08673e-05
1.07522e-05
1.06662e-05
1.06016e-05
1.05533e-05
1.05178e-05
1.04923e-05
1.04742e-05
1.04616e-05
1.04531e-05
1.04474e-05
1.04438e-05
1.04418e-05
1.04422e-05
1.00771e-05
1.00261e-05
9.98379e-06
9.94522e-06
9.90353e-06
9.85451e-06
9.79895e-06
9.74186e-06
9.68975e-06
9.64791e-06
9.61892e-06
9.60223e-06
9.59514e-06
9.59339e-06
9.5942e-06
9.59482e-06
9.59428e-06
9.59527e-06
9.59948e-06
9.60913e-06
9.62841e-06
9.6672e-06
9.73698e-06
9.86091e-06
1.00837e-05
1.04957e-05
1.12952e-05
1.29742e-05
1.69246e-05
2.64437e-05
4.42044e-05
6.78705e-05
9.55103e-05
0.000130071
7.88062e-05
6.15241e-05
6.97126e-05
0.000103964
0.000176397
0.000333163
0.000341154
0.000315187
0.000233734
0.000163378
0.000113645
8.07883e-05
5.97222e-05
4.63658e-05
3.75993e-05
3.14785e-05
2.68672e-05
2.31605e-05
2.00802e-05
1.75199e-05
1.54363e-05
1.37979e-05
1.25634e-05
1.16775e-05
1.10738e-05
1.06808e-05
1.04314e-05
1.02715e-05
1.01635e-05
1.00853e-05
1.0026e-05
9.98018e-06
9.94512e-06
9.91878e-06
9.89944e-06
9.88556e-06
9.87581e-06
9.8691e-06
9.86459e-06
9.86172e-06
9.86041e-06
1.0074e-05
1.00171e-05
9.96851e-06
9.92723e-06
9.89083e-06
9.85629e-06
9.8211e-06
9.78409e-06
9.74558e-06
9.70702e-06
9.67043e-06
9.63758e-06
9.6097e-06
9.58754e-06
9.5716e-06
9.56249e-06
9.56093e-06
9.56789e-06
9.58529e-06
9.61574e-06
9.6636e-06
9.73694e-06
9.85061e-06
1.00331e-05
1.03411e-05
1.08962e-05
1.19828e-05
1.43816e-05
2.04332e-05
3.47512e-05
5.93867e-05
9.43835e-05
0.000102107
2.4709e-05
1e-06
1e-06
1e-06
1e-06
1e-06
8.6216e-05
0.000283571
0.000392977
0.000272798
0.000196333
0.000142089
0.000103886
7.74394e-05
5.91924e-05
4.66464e-05
3.77585e-05
3.12121e-05
2.61936e-05
2.22331e-05
1.90753e-05
1.65767e-05
1.4643e-05
1.31913e-05
1.21427e-05
1.14158e-05
1.09301e-05
1.06111e-05
1.03984e-05
1.025e-05
1.01401e-05
1.00557e-05
9.99013e-06
9.93958e-06
9.90132e-06
9.87301e-06
9.85252e-06
9.83799e-06
9.82788e-06
9.82098e-06
9.81638e-06
9.81355e-06
1.00724e-05
1.00124e-05
9.95929e-06
9.91318e-06
9.87345e-06
9.83893e-06
9.80821e-06
9.77993e-06
9.75316e-06
9.72761e-06
9.70358e-06
9.68177e-06
9.66312e-06
9.64869e-06
9.63962e-06
9.63706e-06
9.64206e-06
9.65564e-06
9.67973e-06
9.7173e-06
9.7735e-06
9.85782e-06
9.98819e-06
1.01998e-05
1.05652e-05
1.12447e-05
1.26347e-05
1.5915e-05
2.45699e-05
4.42572e-05
8.1629e-05
8.67927e-05
1e-06
1e-06
1e-06
1e-06
1e-06
1e-06
1e-06
1e-06
0.00292839
0.00028303
0.000196609
0.000158343
0.000128153
0.000102239
8.12189e-05
6.4849e-05
5.2341e-05
4.27514e-05
3.53165e-05
2.94695e-05
2.48249e-05
2.11354e-05
1.82346e-05
1.59954e-05
1.43078e-05
1.30698e-05
1.21843e-05
1.15618e-05
1.11237e-05
1.08087e-05
1.05747e-05
1.0396e-05
1.02578e-05
1.01515e-05
1.00707e-05
1.00104e-05
9.96622e-06
9.93448e-06
9.91205e-06
9.89644e-06
9.88574e-06
9.87854e-06
9.87398e-06
1.00716e-05
1.00099e-05
9.95422e-06
9.90473e-06
9.86132e-06
9.82359e-06
9.79099e-06
9.76287e-06
9.73868e-06
9.71807e-06
9.70093e-06
9.68742e-06
9.67783e-06
9.67261e-06
9.67232e-06
9.6776e-06
9.68909e-06
9.70778e-06
9.73546e-06
9.77537e-06
9.83344e-06
9.92078e-06
1.00587e-05
1.02896e-05
1.07025e-05
1.14994e-05
1.32031e-05
1.7455e-05
2.89995e-05
5.38461e-05
0.000106454
1.60186e-05
1e-06
1e-06
1e-06
1e-06
1e-06
1e-06
1e-06
1e-06
1e-06
7.98535e-05
0.000121096
0.000100053
9.40449e-05
8.41142e-05
7.31374e-05
6.25306e-05
5.29996e-05
4.47321e-05
3.77084e-05
3.18242e-05
2.69597e-05
2.30042e-05
1.98492e-05
1.73842e-05
1.54974e-05
1.408e-05
1.3029e-05
1.22528e-05
1.16751e-05
1.12387e-05
1.09045e-05
1.0647e-05
1.04492e-05
1.02988e-05
1.01862e-05
1.01031e-05
1.00429e-05
9.99985e-06
9.96951e-06
9.94842e-06
9.93394e-06
9.92416e-06
9.91798e-06
1.00711e-05
1.00086e-05
9.95154e-06
9.90012e-06
9.85431e-06
9.81396e-06
9.77885e-06
9.74875e-06
9.7235e-06
9.70303e-06
9.68735e-06
9.67654e-06
9.67069e-06
9.66989e-06
9.6742e-06
9.68375e-06
9.69881e-06
9.72008e-06
9.74917e-06
9.78941e-06
9.84726e-06
9.93517e-06
1.00773e-05
1.03221e-05
1.07735e-05
1.16711e-05
1.36582e-05
1.88484e-05
3.32697e-05
6.01865e-05
6.27914e-05
1e-06
1e-06
1e-06
1e-06
1e-06
1e-06
1e-06
1e-06
1e-06
1e-06
1e-06
0.00010703
6.36633e-05
6.27019e-05
6.33552e-05
6.12292e-05
5.63661e-05
5.04528e-05
4.42887e-05
3.83603e-05
3.29677e-05
2.82692e-05
2.43144e-05
2.1078e-05
1.84939e-05
1.6471e-05
1.49101e-05
1.37153e-05
1.28017e-05
1.21007e-05
1.15604e-05
1.11435e-05
1.08232e-05
1.05792e-05
1.03957e-05
1.02595e-05
1.01598e-05
1.00878e-05
1.00365e-05
1.00004e-05
9.97532e-06
9.95803e-06
9.94631e-06
9.93892e-06
1.00709e-05
1.0008e-05
9.95023e-06
9.89785e-06
9.85081e-06
9.80899e-06
9.77228e-06
9.74064e-06
9.71407e-06
9.69269e-06
9.67666e-06
9.66611e-06
9.66111e-06
9.66162e-06
9.6675e-06
9.6786e-06
9.69494e-06
9.717e-06
9.74624e-06
9.786e-06
9.84306e-06
9.93066e-06
1.00748e-05
1.03283e-05
1.08053e-05
1.17729e-05
1.3968e-05
1.99045e-05
3.63484e-05
5.67392e-05
3.75959e-05
1e-06
1e-06
1e-06
1e-06
1e-06
1e-06
1e-06
1e-06
1e-06
1e-06
1e-06
5.09523e-05
4.5754e-05
4.57482e-05
4.92063e-05
5.16962e-05
5.11962e-05
4.79492e-05
4.34512e-05
3.84696e-05
3.35525e-05
2.90528e-05
2.51506e-05
2.18868e-05
1.92296e-05
1.71104e-05
1.54435e-05
1.41433e-05
1.31329e-05
1.23492e-05
1.17427e-05
1.12755e-05
1.09184e-05
1.06483e-05
1.04464e-05
1.02973e-05
1.01885e-05
1.011e-05
1.00542e-05
1.00148e-05
9.98735e-06
9.96842e-06
9.95556e-06
9.94744e-06
1.00709e-05
1.00078e-05
9.94984e-06
9.89718e-06
9.84975e-06
9.80747e-06
9.77024e-06
9.73806e-06
9.71098e-06
9.68919e-06
9.67289e-06
9.66224e-06
9.65734e-06
9.6581e-06
9.66433e-06
9.6758e-06
9.69244e-06
9.71463e-06
9.7438e-06
9.78327e-06
9.83991e-06
9.92724e-06
1.00719e-05
1.03284e-05
1.08149e-05
1.18092e-05
1.40852e-05
2.0293e-05
3.68958e-05
4.81872e-05
2.36344e-05
1e-06
1e-06
1e-06
1e-06
1e-06
1e-06
1e-06
1e-06
1e-06
1e-06
1e-06
4.09119e-05
4.39194e-05
4.13789e-05
4.47879e-05
4.8527e-05
4.95751e-05
4.7487e-05
4.35938e-05
3.89197e-05
3.41e-05
2.95868e-05
2.56355e-05
2.23104e-05
1.95851e-05
1.73994e-05
1.56711e-05
1.43166e-05
1.32608e-05
1.24412e-05
1.18079e-05
1.13215e-05
1.09512e-05
1.0672e-05
1.04638e-05
1.03103e-05
1.01984e-05
1.01178e-05
1.00603e-05
1.00197e-05
9.99138e-06
9.9718e-06
9.95847e-06
9.95004e-06
1.00709e-05
1.0008e-05
9.95023e-06
9.89785e-06
9.85081e-06
9.80899e-06
9.77229e-06
9.74065e-06
9.7141e-06
9.69275e-06
9.67677e-06
9.66629e-06
9.6614e-06
9.66204e-06
9.66808e-06
9.67937e-06
9.6959e-06
9.71815e-06
9.74755e-06
9.78743e-06
9.84454e-06
9.93212e-06
1.00762e-05
1.03296e-05
1.08065e-05
1.17753e-05
1.39769e-05
1.99379e-05
3.65626e-05
5.64144e-05
3.76687e-05
1e-06
1e-06
1e-06
1e-06
1e-06
1e-06
1e-06
1e-06
1e-06
1e-06
1e-06
5.05196e-05
4.48572e-05
4.53621e-05
4.92892e-05
5.21926e-05
5.20027e-05
4.88934e-05
4.43852e-05
3.93173e-05
3.4279e-05
2.96523e-05
2.56342e-05
2.22723e-05
1.95341e-05
1.73477e-05
1.56244e-05
1.4277e-05
1.32284e-05
1.24153e-05
1.17875e-05
1.13057e-05
1.09391e-05
1.06629e-05
1.0457e-05
1.03052e-05
1.01946e-05
1.01149e-05
1.0058e-05
1.00178e-05
9.98975e-06
9.97034e-06
9.9571e-06
9.94873e-06
1.00711e-05
1.00086e-05
9.95154e-06
9.90012e-06
9.85432e-06
9.81398e-06
9.77888e-06
9.74882e-06
9.72363e-06
9.70326e-06
9.68773e-06
9.67714e-06
9.67158e-06
9.67115e-06
9.67591e-06
9.68596e-06
9.70154e-06
9.72331e-06
9.75284e-06
9.79341e-06
9.85144e-06
9.93934e-06
1.00812e-05
1.03257e-05
1.07766e-05
1.16751e-05
1.36673e-05
1.88563e-05
3.33715e-05
5.97911e-05
6.35467e-05
1e-06
1e-06
1e-06
1e-06
1e-06
1e-06
1e-06
1e-06
1e-06
1e-06
1e-06
0.000104943
6.12256e-05
6.15173e-05
6.31142e-05
6.17135e-05
5.73388e-05
5.16419e-05
4.55423e-05
3.95719e-05
3.40756e-05
2.92479e-05
2.51621e-05
2.18039e-05
1.91089e-05
1.69836e-05
1.53264e-05
1.40419e-05
1.30481e-05
1.22796e-05
1.16865e-05
1.12308e-05
1.08834e-05
1.06212e-05
1.04255e-05
1.02811e-05
1.01758e-05
1.00998e-05
1.00457e-05
1.00075e-05
9.98076e-06
9.9623e-06
9.94972e-06
9.94175e-06
1.00716e-05
1.00099e-05
9.95422e-06
9.90474e-06
9.86134e-06
9.82365e-06
9.79111e-06
9.76311e-06
9.73912e-06
9.71879e-06
9.70206e-06
9.68907e-06
9.68014e-06
9.6757e-06
9.67631e-06
9.68257e-06
9.69506e-06
9.71472e-06
9.74326e-06
9.78384e-06
9.84229e-06
9.9297e-06
1.00674e-05
1.02976e-05
1.07097e-05
1.15068e-05
1.32136e-05
1.74498e-05
2.89804e-05
5.38681e-05
0.000108544
1.61555e-05
1e-06
1e-06
1e-06
1e-06
1e-06
1e-06
1e-06
1e-06
1e-06
7.72503e-05
0.000110741
9.50362e-05
9.14514e-05
8.31538e-05
7.3113e-05
6.3122e-05
5.3974e-05
4.5902e-05
3.89375e-05
3.30259e-05
2.8088e-05
2.40411e-05
2.07907e-05
1.82291e-05
1.62428e-05
1.47201e-05
1.35593e-05
1.26738e-05
1.19953e-05
1.14733e-05
1.10717e-05
1.07643e-05
1.05312e-05
1.03564e-05
1.0227e-05
1.01324e-05
1.00642e-05
1.00155e-05
9.98115e-06
9.95716e-06
9.9406e-06
9.92931e-06
9.92214e-06
1.00724e-05
1.00124e-05
9.9593e-06
9.9132e-06
9.87353e-06
9.83913e-06
9.80862e-06
9.7807e-06
9.75446e-06
9.72961e-06
9.70643e-06
9.6856e-06
9.66801e-06
9.6547e-06
9.64679e-06
9.64545e-06
9.65168e-06
9.66648e-06
9.6917e-06
9.7302e-06
9.78705e-06
9.87164e-06
1.00019e-05
1.0213e-05
1.05775e-05
1.12567e-05
1.26483e-05
1.59129e-05
2.45032e-05
4.43577e-05
8.0971e-05
8.76497e-05
1e-06
1e-06
1e-06
1e-06
1e-06
1e-06
1e-06
1e-06
0.00279399
0.000274057
0.000178768
0.000150223
0.000123747
0.000100025
8.04387e-05
6.49896e-05
5.3036e-05
4.37362e-05
3.64208e-05
3.05948e-05
2.59213e-05
2.21817e-05
1.9222e-05
1.69173e-05
1.51541e-05
1.38266e-05
1.28371e-05
1.21009e-05
1.15488e-05
1.11298e-05
1.08089e-05
1.05626e-05
1.03745e-05
1.02326e-05
1.0127e-05
1.00495e-05
9.99337e-06
9.95326e-06
9.92495e-06
9.90518e-06
9.89154e-06
9.88225e-06
9.87629e-06
1.0074e-05
1.00172e-05
9.96853e-06
9.92731e-06
9.89108e-06
9.85688e-06
9.82229e-06
9.78616e-06
9.74878e-06
9.7115e-06
9.67612e-06
9.64424e-06
9.61697e-06
9.59503e-06
9.57903e-06
9.56976e-06
9.56815e-06
9.57527e-06
9.59306e-06
9.62411e-06
9.67269e-06
9.74678e-06
9.8611e-06
1.00441e-05
1.03527e-05
1.09084e-05
1.19967e-05
1.43861e-05
2.03615e-05
3.45608e-05
5.88601e-05
9.34172e-05
0.000105429
2.52156e-05
1e-06
1e-06
1e-06
1e-06
1e-06
8.47565e-05
0.000273158
0.000366279
0.000257363
0.000188112
0.000138134
0.000102398
7.73631e-05
5.98527e-05
4.76449e-05
3.88643e-05
3.23129e-05
2.7247e-05
2.3231e-05
2.00227e-05
1.74784e-05
1.54983e-05
1.39915e-05
1.28723e-05
1.20572e-05
1.14689e-05
1.10419e-05
1.07265e-05
1.04893e-05
1.03082e-05
1.01702e-05
1.00657e-05
9.98765e-06
9.93015e-06
9.88842e-06
9.85857e-06
9.83749e-06
9.82278e-06
9.81264e-06
9.80574e-06
9.80117e-06
1.00771e-05
1.00261e-05
9.98385e-06
9.94546e-06
9.90419e-06
9.856e-06
9.80176e-06
9.74638e-06
9.69608e-06
9.65563e-06
9.62706e-06
9.60942e-06
9.59984e-06
9.59425e-06
9.59034e-06
9.586e-06
9.58094e-06
9.57824e-06
9.57984e-06
9.58815e-06
9.60732e-06
9.64724e-06
9.71924e-06
9.84632e-06
1.00731e-05
1.04897e-05
1.12944e-05
1.29731e-05
1.68776e-05
2.6279e-05
4.38824e-05
6.74342e-05
9.51452e-05
0.000136341
8.10894e-05
6.16878e-05
6.935e-05
0.000103976
0.000175819
0.000326064
0.000310707
0.000297792
0.000227698
0.00016293
0.000115482
8.33025e-05
6.21765e-05
4.84848e-05
3.93273e-05
3.28664e-05
2.79993e-05
2.41175e-05
2.0926e-05
1.82979e-05
1.61695e-05
1.44919e-05
1.32108e-05
1.22632e-05
1.15807e-05
1.10962e-05
1.07517e-05
1.05026e-05
1.03185e-05
1.01803e-05
1.00761e-05
9.99801e-06
9.94013e-06
9.89782e-06
9.86735e-06
9.84569e-06
9.83051e-06
9.81999e-06
9.81277e-06
9.80789e-06
9.8045e-06
1.00835e-05
1.00417e-05
1.0002e-05
9.94885e-06
9.8751e-06
9.79172e-06
9.72076e-06
9.68238e-06
9.68604e-06
9.72953e-06
9.80265e-06
9.89102e-06
9.98005e-06
1.00573e-05
1.01132e-05
1.01423e-05
1.01459e-05
1.01316e-05
1.01025e-05
1.00624e-05
1.00153e-05
9.96973e-06
9.93942e-06
9.94511e-06
1.00227e-05
1.0239e-05
1.07303e-05
1.18031e-05
1.42073e-05
1.97891e-05
3.12309e-05
4.78717e-05
6.63505e-05
8.14478e-05
8.4331e-05
9.74721e-05
0.000117548
0.000129697
0.000133507
0.000133163
0.00013192
0.000119722
9.9494e-05
7.8937e-05
6.21269e-05
4.99482e-05
4.16439e-05
3.59804e-05
3.17688e-05
2.83142e-05
2.52527e-05
2.24606e-05
1.99464e-05
1.77582e-05
1.59318e-05
1.44709e-05
1.33485e-05
1.25148e-05
1.19101e-05
1.14759e-05
1.11639e-05
1.09348e-05
1.07641e-05
1.06367e-05
1.05424e-05
1.04732e-05
1.04231e-05
1.03873e-05
1.03622e-05
1.03447e-05
1.03327e-05
1.03245e-05
1.03191e-05
1.03156e-05
1.03133e-05
1.00966e-05
1.0063e-05
9.99752e-06
9.88408e-06
9.76531e-06
9.71138e-06
9.76815e-06
9.94275e-06
1.02124e-05
1.05413e-05
1.08898e-05
1.12258e-05
1.15235e-05
1.17627e-05
1.19291e-05
1.20197e-05
1.20432e-05
1.20093e-05
1.19237e-05
1.1794e-05
1.16293e-05
1.14398e-05
1.12397e-05
1.10472e-05
1.08902e-05
1.08158e-05
1.09115e-05
1.13611e-05
1.25797e-05
1.54933e-05
2.16675e-05
3.18798e-05
4.41214e-05
5.43905e-05
6.04239e-05
6.37484e-05
6.36604e-05
6.05369e-05
5.57699e-05
5.02199e-05
4.51809e-05
4.10152e-05
3.79234e-05
3.59308e-05
3.472e-05
3.38922e-05
3.30531e-05
3.19009e-05
3.02873e-05
2.82228e-05
2.58553e-05
2.34028e-05
2.10752e-05
1.90246e-05
1.73266e-05
1.59883e-05
1.49706e-05
1.42139e-05
1.36623e-05
1.32544e-05
1.29459e-05
1.27135e-05
1.25397e-05
1.2412e-05
1.23194e-05
1.22533e-05
1.22068e-05
1.21747e-05
1.21528e-05
1.2138e-05
1.21283e-05
1.21221e-05
1.21182e-05
1.2116e-05
1.21155e-05
1.0124e-05
1.0074e-05
9.91866e-06
9.77563e-06
9.82972e-06
1.01606e-05
1.07392e-05
1.14911e-05
1.23387e-05
1.32067e-05
1.40204e-05
1.47335e-05
1.53141e-05
1.57459e-05
1.60266e-05
1.61668e-05
1.61927e-05
1.6108e-05
1.59289e-05
1.5672e-05
1.53527e-05
1.49847e-05
1.45811e-05
1.41562e-05
1.37292e-05
1.33285e-05
1.30019e-05
1.28397e-05
1.30307e-05
1.39765e-05
1.63623e-05
2.07533e-05
2.66543e-05
3.22629e-05
3.59624e-05
3.71727e-05
3.57216e-05
3.16348e-05
2.77199e-05
2.59631e-05
2.65398e-05
2.87323e-05
3.17142e-05
3.47469e-05
3.72056e-05
3.86391e-05
3.88282e-05
3.77814e-05
3.56957e-05
3.29229e-05
2.9891e-05
2.69769e-05
2.44304e-05
2.23582e-05
2.0753e-05
1.95447e-05
1.86481e-05
1.79836e-05
1.7474e-05
1.70811e-05
1.678e-05
1.65556e-05
1.63916e-05
1.62741e-05
1.61914e-05
1.61344e-05
1.60958e-05
1.60701e-05
1.60535e-05
1.60431e-05
1.60367e-05
1.60332e-05
1.60316e-05
1.60316e-05
1.60338e-05
1.01822e-05
1.00567e-05
9.932e-06
1.0255e-05
1.11619e-05
1.25295e-05
1.41862e-05
1.59418e-05
1.76551e-05
1.92129e-05
2.05344e-05
2.15799e-05
2.2343e-05
2.28429e-05
2.31154e-05
2.32066e-05
2.31489e-05
2.29555e-05
2.26603e-05
2.22898e-05
2.18629e-05
2.13918e-05
2.08837e-05
2.03439e-05
1.97784e-05
1.91975e-05
1.86204e-05
1.80824e-05
1.76521e-05
1.74609e-05
1.77179e-05
1.86096e-05
2.00559e-05
2.16213e-05
2.28431e-05
2.36024e-05
2.42488e-05
2.59618e-05
2.95208e-05
3.47805e-05
4.10306e-05
4.7306e-05
5.26316e-05
5.62303e-05
5.76269e-05
5.67275e-05
5.38301e-05
4.95306e-05
4.4583e-05
3.97227e-05
3.5473e-05
3.20738e-05
2.95205e-05
2.76616e-05
2.63096e-05
2.53226e-05
2.45683e-05
2.39764e-05
2.35219e-05
2.31757e-05
2.29222e-05
2.27407e-05
2.26135e-05
2.25266e-05
2.24689e-05
2.24316e-05
2.24085e-05
2.23947e-05
2.23872e-05
2.23837e-05
2.23827e-05
2.23833e-05
2.23851e-05
2.23885e-05
2.23952e-05
1.03272e-05
1.03742e-05
1.12102e-05
1.31965e-05
1.60032e-05
1.91003e-05
2.22039e-05
2.50578e-05
2.74742e-05
2.93617e-05
3.07166e-05
3.15964e-05
3.20902e-05
3.22952e-05
3.23028e-05
3.21863e-05
3.19706e-05
3.17024e-05
3.14186e-05
3.11443e-05
3.08949e-05
3.06783e-05
3.04971e-05
3.03513e-05
3.02398e-05
3.01632e-05
3.01275e-05
3.01504e-05
3.02722e-05
3.05706e-05
3.11721e-05
3.22427e-05
3.39581e-05
3.65004e-05
4.01275e-05
4.52882e-05
5.31133e-05
6.30482e-05
7.4361e-05
8.55072e-05
9.46286e-05
0.000100082
0.000100883
9.70301e-05
8.92944e-05
7.92057e-05
6.84937e-05
5.8631e-05
5.05018e-05
4.4381e-05
4.00666e-05
3.7145e-05
3.51694e-05
3.3773e-05
3.27472e-05
3.19676e-05
3.13833e-05
3.09477e-05
3.06352e-05
3.04166e-05
3.02697e-05
3.01761e-05
3.01205e-05
3.00907e-05
3.00777e-05
3.00751e-05
3.00785e-05
3.00852e-05
3.00931e-05
3.01013e-05
3.01092e-05
3.01168e-05
3.01244e-05
3.01333e-05
3.01467e-05
1.10251e-05
1.30005e-05
1.7014e-05
2.17977e-05
2.64078e-05
3.05706e-05
3.40462e-05
3.66944e-05
3.85177e-05
3.96222e-05
4.0164e-05
4.03075e-05
4.02002e-05
3.99622e-05
3.96836e-05
3.94255e-05
3.92292e-05
3.91337e-05
3.91744e-05
3.93843e-05
3.9797e-05
4.04502e-05
4.13895e-05
4.2672e-05
4.43695e-05
4.65716e-05
4.93886e-05
5.29574e-05
5.74523e-05
6.31005e-05
7.02023e-05
7.91484e-05
9.0425e-05
0.00010463
0.000122617
0.00014438
0.000167049
0.000187501
0.000201992
0.00020707
0.000200784
0.000183741
0.000159367
0.000131783
0.000105421
8.40135e-05
6.81266e-05
5.6987e-05
4.95347e-05
4.46381e-05
4.1491e-05
3.94479e-05
3.80848e-05
3.71519e-05
3.65154e-05
3.61008e-05
3.5855e-05
3.5727e-05
3.56728e-05
3.56551e-05
3.56625e-05
3.56935e-05
3.57378e-05
3.57878e-05
3.5838e-05
3.5885e-05
3.5927e-05
3.59634e-05
3.59942e-05
3.60199e-05
3.60411e-05
3.6059e-05
3.6075e-05
3.60919e-05
3.61138e-05
)
;

boundaryField
{
    ibCylinder
    {
        type            immersedBoundaryNutWallFunction;
        patchType       immersedBoundary;
        blending        stepwise;
        value           nonuniform List<scalar> 0();
    }
    in
    {
        type            zeroGradient;
    }
    out
    {
        type            zeroGradient;
    }
    top
    {
        type            zeroGradient;
    }
    bottom
    {
        type            zeroGradient;
    }
    frontAndBack
    {
        type            empty;
    }
}


// ************************************************************************* //
