/*--------------------------------*- C++ -*----------------------------------*\
| =========                 |                                                 |
| \\      /  F ield         | OpenFOAM: The Open Source CFD Toolbox           |
|  \\    /   O peration     | Version:  2206                                  |
|   \\  /    A nd           | Website:  www.openfoam.com                      |
|    \\/     M anipulation  |                                                 |
\*---------------------------------------------------------------------------*/
FoamFile
{
    version     2.0;
    format      ascii;
    arch        "LSB;label=32;scalar=64";
    class       volScalarField;
    location    "0.8";
    object      p;
}
// * * * * * * * * * * * * * * * * * * * * * * * * * * * * * * * * * * * * * //

dimensions      [0 2 -2 0 0 0 0];

internalField   nonuniform List<scalar> 
1875
(
6.95794
6.56819
6.31697
6.21889
6.15868
6.11102
6.07598
6.05068
6.03074
6.01336
5.99706
5.98094
5.96437
5.94685
5.92795
5.90696
5.88306
5.85525
5.82237
5.78295
5.73498
5.67592
5.60248
5.5105
5.39473
5.24867
5.06446
4.83295
4.54416
4.18839
3.75826
3.25217
2.6791
2.0628
1.43865
0.839765
0.309164
-0.115334
-0.426045
-0.627868
-0.739062
-0.783012
-0.776004
-0.731232
-0.665994
-0.593449
-0.519447
-0.447196
-0.377888
-0.312452
-0.252058
-0.197111
-0.147839
-0.104672
-0.0674514
-0.0360054
-0.00995057
0.0110044
0.0273737
0.0396313
0.0482256
0.0536633
0.0565137
0.0572474
0.0562588
0.0538787
0.0504022
0.0460607
0.0410457
0.0355083
0.0295723
0.0233325
0.0168669
0.0102363
0.00347987
6.58277
6.4271
6.29824
6.22065
6.16709
6.12337
6.08836
6.06173
6.04003
6.02096
6.00326
5.98604
5.96866
5.95055
5.93118
5.90996
5.88592
5.85813
5.82546
5.78643
5.73909
5.68088
5.60853
5.51787
5.40357
5.25893
5.07574
4.84421
4.5534
4.19215
3.75139
3.22763
2.6283
1.97836
1.31762
0.693534
0.154673
-0.264992
-0.548965
-0.712809
-0.784756
-0.792848
-0.757788
-0.69629
-0.625295
-0.554125
-0.484983
-0.41836
-0.354421
-0.294006
-0.237645
-0.185616
-0.138679
-0.0974681
-0.0617487
-0.0313118
-0.0061831
0.0139781
0.0296513
0.0412163
0.0493062
0.0544595
0.057108
0.0576866
0.056576
0.0541105
0.0505695
0.0461804
0.0411294
0.0355663
0.0296108
0.0233578
0.0168829
0.0102433
0.00349007
6.40607
6.35562
6.28491
6.22603
6.17812
6.13668
6.10253
6.07455
6.05106
6.03068
6.01205
5.99412
5.97633
5.95814
5.93898
5.91826
5.89509
5.86853
5.83753
5.80073
5.75627
5.70165
5.6336
5.54788
5.43889
5.29944
5.12033
4.89019
4.59557
4.22178
3.75539
3.18806
2.52447
1.79505
1.05144
0.356621
-0.214542
-0.629672
-0.874054
-0.970202
-0.970505
-0.916386
-0.831171
-0.731059
-0.629612
-0.535418
-0.453222
-0.382376
-0.319468
-0.262705
-0.210829
-0.1634
-0.120598
-0.0826751
-0.049658
-0.0214736
0.00167561
0.0202582
0.0346765
0.0452055
0.0523865
0.0568518
0.0589529
0.0590978
0.0576417
0.054907
0.0511613
0.0466157
0.0414459
0.0357929
0.0297697
0.0234656
0.0169524
0.0102791
0.00350724
6.32709
6.30613
6.26106
6.2166
6.17825
6.14427
6.1139
6.08624
6.0631
6.04293
6.02367
6.00531
5.98775
5.9704
5.95247
5.93337
5.91243
5.8888
5.86155
5.82947
5.79092
5.7435
5.68391
5.60789
5.50946
5.38055
5.21041
4.98488
4.68626
4.29356
3.78568
3.14468
2.36728
1.49536
0.595538
-0.211375
-0.83541
-1.23798
-1.41066
-1.40251
-1.29871
-1.1546
-0.994252
-0.831292
-0.67898
-0.54514
-0.434722
-0.344959
-0.27241
-0.213627
-0.164628
-0.12248
-0.0856223
-0.0534941
-0.0257564
-0.00224898
0.0170553
0.0324519
0.04426
0.0526803
0.058127
0.0612176
0.0622588
0.0616088
0.0595228
0.0563045
0.0521913
0.0473648
0.0419837
0.0361726
0.0300313
0.0236385
0.0170587
0.0103311
0.00352031
6.27508
6.26424
6.23666
6.2044
6.17419
6.14627
6.12039
6.09618
6.07489
6.05573
6.03696
6.01941
6.00327
5.98759
5.97142
5.95452
5.93672
5.9175
5.89584
5.87068
5.84067
5.80377
5.75656
5.69466
5.61201
5.49956
5.3446
5.12935
4.83014
4.41591
3.85268
3.09588
2.11797
0.988209
-0.184782
-1.13118
-1.76179
-2.1132
-2.16991
-2.00423
-1.75773
-1.49586
-1.24558
-1.00319
-0.784595
-0.596548
-0.443873
-0.31965
-0.222214
-0.150888
-0.100181
-0.0623683
-0.0325294
-0.00841991
0.0113744
0.0276851
0.0408495
0.0511078
0.0586246
0.0636329
0.066526
0.0675246
0.0669496
0.065054
0.0620778
0.0581789
0.0535487
0.048336
0.0426664
0.0366421
0.0303442
0.0238365
0.0171716
0.0103812
0.00352165
6.23936
6.23317
6.2157
6.19274
6.16921
6.1463
6.12436
6.10344
6.08388
6.06608
6.04959
6.03394
6.01937
6.00569
5.99218
5.97868
5.96529
5.9517
5.93714
5.92097
5.90202
5.87818
5.84672
5.80374
5.74312
5.65514
5.52522
5.33167
5.04297
4.61288
3.98344
3.04459
1.80477
0.422982
-1.05758
-2.25777
-2.89901
-3.10999
-2.99164
-2.60356
-2.20423
-1.83068
-1.49832
-1.19874
-0.921855
-0.673765
-0.472369
-0.30996
-0.179722
-0.0881387
-0.0282812
0.00990831
0.0343217
0.0497971
0.0599577
0.0670806
0.0721442
0.0755416
0.0774717
0.0780862
0.0774166
0.0756578
0.0729826
0.0694481
0.0652593
0.0604929
0.0552239
0.0495327
0.0435037
0.0372137
0.0307211
0.024072
0.0173033
0.0104413
0.00351856
6.21448
6.21058
6.19879
6.18204
6.16367
6.14501
6.1265
6.10853
6.09147
6.07564
6.06093
6.0471
6.03421
6.0227
6.01257
6.00343
5.99527
5.98775
5.98092
5.97465
5.96807
5.9598
5.94787
5.92894
5.89721
5.84306
5.75093
5.59581
5.33795
4.9125
4.22033
3.1483
1.84391
0.603819
-0.942521
-2.71313
-3.66343
-3.87958
-3.70489
-3.01578
-2.4821
-2.00719
-1.6364
-1.32081
-1.02106
-0.74085
-0.495577
-0.297945
-0.144475
-0.0326234
0.0413047
0.0843238
0.105569
0.113321
0.114227
0.111886
0.108102
0.103769
0.0992615
0.0946909
0.0899991
0.0850804
0.0799721
0.0746224
0.0690211
0.0631967
0.0571541
0.0509071
0.0444741
0.0378838
0.0311679
0.0243548
0.017464
0.0105149
0.00351499
6.19672
6.19399
6.18553
6.17293
6.1584
6.14305
6.12745
6.11204
6.09722
6.08331
6.07042
6.05866
6.04821
6.03929
6.03214
6.02685
6.02356
6.0224
6.02372
6.02769
6.03411
6.04269
6.05241
6.06084
6.06341
6.05179
6.01107
5.91508
5.71825
5.34424
4.67479
3.68382
2.62863
0.42498
0
0
0
0
0
-2.87511
-2.4873
-1.95819
-1.61324
-1.32326
-1.04332
-0.763091
-0.497131
-0.272159
-0.096893
0.0298658
0.111416
0.155592
0.173485
0.175204
0.168174
0.157013
0.144684
0.132731
0.121825
0.112037
0.103179
0.0949869
0.0873792
0.0801174
0.0730473
0.066123
0.0592572
0.0524062
0.0455315
0.038618
0.031664
0.0246755
0.017653
0.0106087
0.00352234
6.18395
6.18189
6.17547
6.16565
6.15389
6.14109
6.12777
6.11442
6.10148
6.0893
6.07814
6.06824
6.05988
6.05335
6.04901
6.04731
6.04868
6.05362
6.06274
6.07669
6.09609
6.12149
6.15306
6.19006
6.23004
6.26727
6.28971
6.27321
6.17116
5.89215
5.28116
4.48999
0
0
0
0
0
0
0
0
-2.23568
-1.8179
-1.5035
-1.24375
-0.989007
-0.725134
-0.464793
-0.23284
-0.0446548
0.0916455
0.178011
0.222976
0.237493
0.232858
0.217654
0.198157
0.17819
0.159586
0.142986
0.128417
0.11568
0.104505
0.0945342
0.0854276
0.0769854
0.0689999
0.0613358
0.0539055
0.0465978
0.0393626
0.0321714
0.0250089
0.0178559
0.010718
0.00354255
6.17496
6.17331
6.16817
6.16016
6.15034
6.1394
6.12781
6.11605
6.1046
6.09385
6.08412
6.07577
6.06917
6.06473
6.06288
6.06426
6.06964
6.07978
6.09564
6.11838
6.14936
6.19004
6.24191
6.30612
6.38291
6.47029
6.56139
6.63925
6.66885
6.54195
6.10043
5.54701
0
0
0
0
0
0
0
0
0
-1.66339
-1.38055
-1.14905
-0.915455
-0.665992
-0.41381
-0.183474
0.00545302
0.144032
0.232379
0.27721
0.28917
0.279778
0.258593
0.232727
0.206588
0.182378
0.16093
0.142381
0.126477
0.112785
0.10075
0.0900743
0.0804707
0.0715567
0.0631932
0.0552589
0.0475683
0.0400447
0.0326394
0.0253194
0.0180476
0.0108214
0.00356534
6.16898
6.16758
6.16321
6.15636
6.14781
6.13812
6.12774
6.11712
6.10674
6.09704
6.08839
6.08121
6.07594
6.0731
6.07322
6.07693
6.08534
6.09947
6.12056
6.1502
6.19032
6.24323
6.31165
6.39849
6.5066
6.63785
6.79113
6.95772
7.108
7.15467
7.17532
0
0
0
0
0
0
0
0
0
0
0
-1.25136
-1.05854
-0.841957
-0.60589
-0.362762
-0.137671
0.0489937
0.186362
0.273386
0.31646
0.325854
0.313057
0.28784
0.257681
0.227327
0.199239
0.174412
0.153003
0.134732
0.119116
0.105594
0.0937446
0.0831815
0.0735713
0.0646702
0.05632
0.0483346
0.0405895
0.0330156
0.0255704
0.0182041
0.0109063
0.00358653
6.16556
6.16429
6.16035
6.15412
6.14629
6.13734
6.12767
6.11772
6.108
6.09894
6.09095
6.08448
6.08003
6.07818
6.07957
6.08484
6.09507
6.1117
6.13611
6.17013
6.21611
6.27693
6.35614
6.45793
6.58702
6.74817
6.94462
7.17365
7.41188
7.62882
7.98009
0
0
0
0
0
0
0
0
0
0
0
-1.12596
-0.986613
-0.785418
-0.559507
-0.322989
-0.102775
0.080509
0.215526
0.300161
0.341287
0.349187
0.334103
0.30592
0.272929
0.240019
0.209605
0.182728
0.159578
0.139863
0.12307
0.10864
0.0960776
0.0849454
0.0748862
0.065633
0.0569944
0.0488168
0.0409379
0.0332585
0.0257322
0.0183053
0.0109617
0.00360141
6.16444
6.16322
6.15941
6.15338
6.14578
6.13707
6.12763
6.11791
6.10841
6.09957
6.0918
6.08556
6.08138
6.07985
6.08172
6.08757
6.09836
6.11585
6.14139
6.17691
6.2249
6.28845
6.3714
6.47839
6.61483
6.78649
6.9982
7.24932
7.51963
7.80478
8.21473
0
0
0
0
0
0
0
0
0
0
0
-1.06951
-0.957058
-0.763188
-0.541699
-0.307514
-0.0891648
0.0926204
0.2264
0.309969
0.350368
0.357926
0.341746
0.312106
0.278003
0.244256
0.213078
0.185519
0.161791
0.141594
0.124407
0.109665
0.0968577
0.0855362
0.0753649
0.0660007
0.0572151
0.0489704
0.0410541
0.0333417
0.0257873
0.0183397
0.0109799
0.00360613
6.16554
6.16428
6.16033
6.15411
6.14628
6.13732
6.12765
6.11771
6.10798
6.09893
6.09094
6.08446
6.08002
6.07817
6.07956
6.08483
6.09506
6.11169
6.13609
6.17012
6.21609
6.27691
6.35612
6.45791
6.587
6.74815
6.9446
7.17363
7.41186
7.62881
7.9801
0
0
0
0
0
0
0
0
0
0
0
-1.12609
-0.986724
-0.785501
-0.559563
-0.323023
-0.102794
0.0804998
0.215522
0.300155
0.34128
0.349179
0.334093
0.305907
0.272914
0.240004
0.20959
0.182714
0.159565
0.13985
0.123059
0.108628
0.0960677
0.0849362
0.0748778
0.0656253
0.0569874
0.0488107
0.0409327
0.0332543
0.025729
0.0183031
0.0109604
0.00360103
6.16895
6.16755
6.16319
6.15633
6.14778
6.1381
6.12772
6.11709
6.10671
6.09702
6.08836
6.08118
6.07591
6.07307
6.07319
6.0769
6.08531
6.09943
6.12053
6.15016
6.19028
6.2432
6.31161
6.39845
6.50656
6.63782
6.79109
6.95767
7.10795
7.15461
7.17554
0
0
0
0
0
0
0
0
0
0
0
-1.25163
-1.05876
-0.842121
-0.605994
-0.362822
-0.137703
0.0489782
0.186352
0.273374
0.316443
0.325831
0.313031
0.287811
0.25765
0.227297
0.199209
0.174384
0.152976
0.134706
0.119092
0.105572
0.0937245
0.0831632
0.0735545
0.0646548
0.0563062
0.0483223
0.040579
0.0330071
0.025564
0.0181997
0.0109038
0.00358575
6.17492
6.17327
6.16813
6.16012
6.1503
6.13936
6.12777
6.11601
6.10456
6.09381
6.08408
6.07573
6.06913
6.06469
6.06284
6.06421
6.06959
6.07973
6.09559
6.11833
6.14931
6.18999
6.24186
6.30607
6.38286
6.47024
6.56133
6.63919
6.66879
6.54189
6.10041
5.54691
0
0
0
0
0
0
0
0
0
-1.66369
-1.3809
-1.14937
-0.91568
-0.666128
-0.413886
-0.183515
0.00543037
0.144014
0.232358
0.277181
0.289133
0.279736
0.258548
0.232681
0.206542
0.182334
0.160888
0.14234
0.126438
0.112749
0.100716
0.0900439
0.0804432
0.0715318
0.0631704
0.0552382
0.0475499
0.040029
0.0326268
0.0253098
0.0180411
0.0108176
0.00356416
6.1839
6.18184
6.17542
6.1656
6.15384
6.14104
6.12772
6.11437
6.10143
6.08925
6.07808
6.06819
6.05983
6.05329
6.04895
6.04725
6.04862
6.05356
6.06267
6.07662
6.09602
6.12143
6.153
6.18998
6.22996
6.26719
6.28962
6.27312
6.17107
5.89205
5.28105
4.48989
0
0
0
0
0
0
0
0
-2.23603
-1.81836
-1.50399
-1.24415
-0.989263
-0.725286
-0.464876
-0.232892
-0.0446908
0.0916133
0.177973
0.222929
0.237438
0.232799
0.217593
0.198096
0.178128
0.159527
0.14293
0.128363
0.115629
0.104457
0.09449
0.0853873
0.0769488
0.0689666
0.0613054
0.053878
0.0465734
0.0393418
0.0321546
0.0249961
0.017847
0.0107129
0.00354096
6.19666
6.19393
6.18546
6.17287
6.15833
6.14299
6.12738
6.11197
6.09716
6.08324
6.07036
6.05859
6.04814
6.03922
6.03207
6.02678
6.02348
6.02232
6.02364
6.02761
6.03403
6.0426
6.05233
6.06075
6.06331
6.05169
6.01096
5.91497
5.71813
5.34412
4.67467
3.68372
2.62839
0.423716
0
0
0
0
0
-2.87516
-2.48761
-1.95876
-1.61381
-1.32366
-1.04358
-0.76324
-0.497203
-0.272231
-0.096952
0.0298065
0.111351
0.155519
0.173407
0.175124
0.168093
0.156934
0.144608
0.132657
0.121754
0.11197
0.103116
0.0949276
0.0873243
0.0800673
0.0730017
0.0660815
0.0592194
0.052372
0.0455013
0.0385921
0.031643
0.0246595
0.017642
0.0106023
0.00352033
6.21441
6.2105
6.19872
6.18196
6.1636
6.14493
6.12642
6.10845
6.09139
6.07556
6.06085
6.04702
6.03412
6.02261
6.01248
6.00334
5.99518
5.98765
5.98082
5.97455
5.96797
5.9597
5.94776
5.92882
5.89708
5.84293
5.75079
5.59567
5.33781
4.91236
4.22021
3.1482
1.84382
0.60357
-0.943128
-2.71358
-3.6638
-3.87992
-3.7053
-3.01622
-2.48256
-2.00774
-1.63686
-1.32114
-1.0213
-0.741009
-0.495698
-0.298064
-0.144576
-0.0327215
0.0412008
0.0842172
0.105463
0.113216
0.114126
0.11179
0.10801
0.103681
0.0991773
0.0946109
0.0899239
0.0850101
0.0799069
0.0745626
0.0689667
0.0631472
0.0571091
0.0508666
0.0444382
0.0378531
0.0311429
0.0243357
0.0174507
0.0105072
0.0035125
6.23928
6.23309
6.21562
6.19266
6.16913
6.14621
6.12427
6.10336
6.08379
6.06599
6.0495
6.03385
6.01928
6.00559
5.99208
5.97858
5.96519
5.95159
5.93703
5.92086
5.9019
5.87806
5.84659
5.80361
5.74297
5.65499
5.52506
5.3315
5.0428
4.6127
3.98325
3.04436
1.80455
0.422522
-1.05822
-2.25824
-2.89946
-3.11056
-2.99229
-2.60431
-2.20491
-1.83114
-1.49871
-1.19909
-0.92214
-0.673995
-0.47258
-0.310136
-0.179889
-0.0882868
-0.0284276
0.00976727
0.0341878
0.0496703
0.0598387
0.0669681
0.0720374
0.0754398
0.0773749
0.077994
0.0773306
0.0755773
0.0729078
0.0693793
0.0651965
0.0604359
0.0551723
0.0494861
0.0434625
0.0371783
0.0306922
0.0240498
0.0172879
0.0104323
0.0035156
6.275
6.26415
6.23657
6.20431
6.1741
6.14617
6.1203
6.09609
6.07479
6.05563
6.03686
6.01931
6.00316
5.98748
5.97132
5.95441
5.9366
5.91739
5.89572
5.87056
5.84054
5.80363
5.75642
5.6945
5.61184
5.49938
5.34441
5.12916
4.82994
4.4157
3.85245
3.09564
2.11768
0.987814
-0.185225
-1.13169
-1.7624
-2.1138
-2.17048
-2.00482
-1.75828
-1.49628
-1.24604
-1.00364
-0.784954
-0.596876
-0.444162
-0.319891
-0.222432
-0.151087
-0.100366
-0.0625396
-0.0326873
-0.00856587
0.0112387
0.0275579
0.0407294
0.0509939
0.058517
0.0635319
0.0664304
0.067435
0.0668662
0.0649771
0.0620075
0.058115
0.0534909
0.0482839
0.0426203
0.0366025
0.0303118
0.0238114
0.017154
0.0103708
0.00351825
6.327
6.30604
6.26096
6.2165
6.17815
6.14417
6.1138
6.08614
6.063
6.04283
6.02356
6.0052
5.98764
5.97028
5.95235
5.93325
5.91231
5.88867
5.86141
5.82934
5.79078
5.74335
5.68375
5.60772
5.50927
5.38035
5.2102
4.98466
4.68603
4.29332
3.78542
3.1444
2.36697
1.49505
0.59516
-0.21185
-0.835885
-1.23846
-1.41117
-1.40305
-1.29924
-1.1551
-0.994734
-0.831742
-0.679385
-0.54551
-0.435057
-0.345257
-0.272678
-0.213868
-0.164845
-0.122676
-0.0858008
-0.0536575
-0.0259074
-0.00238969
0.0169231
0.0323276
0.0441425
0.0525699
0.0580231
0.0611204
0.0621681
0.061525
0.0594461
0.0562349
0.0521281
0.0473081
0.0419335
0.0361295
0.0299958
0.0236109
0.0170392
0.0103196
0.0035165
6.40597
6.35552
6.28481
6.22593
6.17802
6.13658
6.10242
6.07444
6.05095
6.03057
6.01193
5.994
5.97621
5.95802
5.93886
5.91813
5.89496
5.86839
5.83739
5.80058
5.75612
5.70149
5.63343
5.54769
5.43869
5.29922
5.1201
4.88995
4.59533
4.22152
3.7551
3.18774
2.52412
1.79468
1.05105
0.356192
-0.214969
-0.630135
-0.874546
-0.970705
-0.971018
-0.916892
-0.831654
-0.731522
-0.630041
-0.535812
-0.453586
-0.382709
-0.319769
-0.262975
-0.211071
-0.163617
-0.120794
-0.0828536
-0.049822
-0.0216255
0.00153348
0.0201252
0.0345512
0.045088
0.0522764
0.0567488
0.0588567
0.0590089
0.0575601
0.0548328
0.0510941
0.0465554
0.0413925
0.0357471
0.0297319
0.0234361
0.0169314
0.0102666
0.00350311
6.58267
6.427
6.29814
6.22054
6.16698
6.12327
6.08825
6.06161
6.03992
6.02084
6.00314
5.98592
5.96854
5.95043
5.93105
5.90983
5.88579
5.85799
5.82532
5.78628
5.73893
5.68071
5.60835
5.51768
5.40336
5.25871
5.0755
4.84397
4.55314
4.19188
3.75109
3.2273
2.62794
1.97797
1.31721
0.693119
0.154243
-0.265441
-0.549429
-0.713287
-0.785231
-0.793325
-0.758263
-0.696751
-0.625732
-0.554538
-0.485367
-0.418712
-0.35474
-0.294292
-0.237901
-0.185845
-0.138887
-0.0976565
-0.0619213
-0.0314713
-0.00633164
0.0138393
0.0295212
0.0410944
0.0491923
0.0543531
0.0570085
0.0575942
0.0564912
0.0540333
0.0504996
0.0461177
0.0410741
0.0355188
0.0295716
0.0233273
0.0168611
0.0102303
0.00348575
6.95784
6.56809
6.31687
6.21879
6.15857
6.11092
6.07587
6.05056
6.03062
6.01324
5.99694
5.98082
5.96425
5.94672
5.92782
5.90683
5.88293
5.85511
5.82223
5.78279
5.73482
5.67575
5.6023
5.5103
5.39452
5.24845
5.06422
4.83269
4.54389
4.18811
3.75796
3.25184
2.67874
2.06242
1.43825
0.839353
0.308743
-0.115772
-0.426505
-0.628348
-0.73954
-0.783494
-0.776501
-0.731701
-0.666438
-0.593874
-0.519838
-0.447554
-0.378213
-0.312741
-0.252317
-0.197342
-0.148049
-0.104862
-0.0676268
-0.0361666
-0.0101015
0.0108645
0.0272421
0.0395091
0.0481105
0.053556
0.0564128
0.0571545
0.0561722
0.0538005
0.050331
0.0459973
0.0409894
0.0354604
0.0295323
0.0233018
0.0168448
0.010223
0.00347546
)
;

boundaryField
{
    ibCylinder
    {
        type            zeroGradientIb;
        patchType       immersedBoundary;
        setDeadValue    true;
        deadValue       0;
        value           nonuniform List<scalar> 0();
    }
    in
    {
        type            zeroGradient;
    }
    out
    {
        type            fixedValue;
        value           uniform 0;
    }
    top
    {
        type            zeroGradient;
    }
    bottom
    {
        type            zeroGradient;
    }
    frontAndBack
    {
        type            empty;
    }
}


// ************************************************************************* //
