/*--------------------------------*- C++ -*----------------------------------*\
| =========                 |                                                 |
| \\      /  F ield         | OpenFOAM: The Open Source CFD Toolbox           |
|  \\    /   O peration     | Version:  2206                                  |
|   \\  /    A nd           | Website:  www.openfoam.com                      |
|    \\/     M anipulation  |                                                 |
\*---------------------------------------------------------------------------*/
FoamFile
{
    version     2.0;
    format      ascii;
    arch        "LSB;label=32;scalar=64";
    class       surfaceScalarField;
    location    "0.8";
    object      phi;
}
// * * * * * * * * * * * * * * * * * * * * * * * * * * * * * * * * * * * * * //

dimensions      [0 3 -1 0 0 0 0];

oriented        oriented;

internalField   nonuniform List<scalar> 
3650
(
0.00275126
0.000448744
0.00224426
0.000506993
0.00181533
0.000428935
0.0014844
0.000330927
0.0012414
0.000242999
0.00106925
0.000172154
0.000948331
0.000120919
0.000863551
8.47796e-05
0.000803402
6.01503e-05
0.000760149
4.3253e-05
0.000729121
3.10288e-05
0.000707493
2.16281e-05
0.000693735
1.37592e-05
0.000687206
6.52973e-06
0.000687784
-5.77098e-07
0.000695388
-7.60429e-06
0.000710647
-1.52585e-05
0.000734821
-2.41738e-05
0.000769439
-3.46174e-05
0.000816474
-4.70347e-05
0.000878464
-6.19909e-05
0.000958577
-8.0113e-05
0.00106065
-0.000102069
0.00118916
-0.000128512
0.00134911
-0.000159953
0.00154568
-0.000196563
0.00178354
-0.000237867
0.00206588
-0.00028234
0.00239279
-0.00032691
0.00275917
-0.000366376
0.00315238
-0.000393211
0.00355003
-0.00039765
0.00391807
-0.000368042
0.0042132
-0.000295137
0.00439229
-0.000179089
0.00442132
-2.90297e-05
0.00429202
0.000129299
0.00402016
0.000271861
0.00362949
0.000390673
0.00316499
0.000464504
0.00267536
0.000489632
0.00220322
0.000472145
0.00178031
0.000422916
0.00142489
0.000355427
0.00113834
0.000286548
0.000912052
0.000226291
0.000738712
0.000173343
0.000609741
0.000128975
0.000518266
9.14791e-05
0.000457694
6.05747e-05
0.000421143
3.65544e-05
0.000403597
1.75474e-05
0.000399908
3.69173e-06
0.00040508
-5.17155e-06
0.000416259
-1.11757e-05
0.000431142
-1.4882e-05
0.000447895
-1.6751e-05
0.000464801
-1.69053e-05
0.000481084
-1.62814e-05
0.000496057
-1.49732e-05
0.000509336
-1.32769e-05
0.000520776
-1.14398e-05
0.000530444
-9.66652e-06
0.000538469
-8.02481e-06
0.000545044
-6.57344e-06
0.000550358
-5.31423e-06
0.000554606
-4.24665e-06
0.000557965
-3.35932e-06
0.000560597
-2.63117e-06
0.000562638
-2.04107e-06
0.000564205
-1.56596e-06
0.000565391
-1.18629e-06
0.000566274
-8.82793e-07
0.000566911
-6.36676e-07
-4.61606e-07
0.00336562
0.00028312
0.00335205
0.000520567
0.0032342
0.000546785
0.00305761
0.000507514
0.00285152
0.000449091
0.00264624
0.000377437
0.00246278
0.000304375
0.00230751
0.000240051
0.00217943
0.000188232
0.00207594
0.000146746
0.0019941
0.00011287
0.00193086
8.48648e-05
0.00188403
6.05935e-05
0.00185238
3.81754e-05
0.00183539
1.64174e-05
0.00183291
-5.12247e-06
0.00184518
-2.75284e-05
0.00187373
-5.27284e-05
0.00192038
-8.12639e-05
0.00198764
-0.000114291
0.00207879
-0.000153147
0.00219796
-0.000199283
0.00235012
-0.000254224
0.00254106
-0.000319456
0.00277726
-0.000396148
0.00306547
-0.000484773
0.00341212
-0.00058452
0.0038223
-0.000692515
0.00429821
-0.00080282
0.00483687
-0.000905033
0.00542746
-0.000983805
0.00604858
-0.00101877
0.00666527
-0.000984739
0.00723025
-0.000860118
0.00768826
-0.000637096
0.00798141
-0.000322179
0.00807706
3.3653e-05
0.00796906
0.00037986
0.00767502
0.00068471
0.00721933
0.000920203
0.00663724
0.00107172
0.00596671
0.00114268
0.00524729
0.00114233
0.00452028
0.00108244
0.00383194
0.000974892
0.00322294
0.000835291
0.00271377
0.000682516
0.00230794
0.00053481
0.00199795
0.000401477
0.00177085
0.000287675
0.00161237
0.000195038
0.00150731
0.000122609
0.00144281
6.81856e-05
0.00140902
2.8624e-05
0.0013974
4.464e-07
0.00140011
-1.75945e-05
0.00141186
-2.84966e-05
0.0014285
-3.35408e-05
0.00144712
-3.49045e-05
0.00146589
-3.37376e-05
0.00148372
-3.11117e-05
0.00149992
-2.76409e-05
0.00151414
-2.38832e-05
0.00152632
-2.01997e-05
0.00153653
-1.67835e-05
0.00154494
-1.373e-05
0.00155179
-1.10895e-05
0.00155728
-8.85417e-06
0.00156165
-6.994e-06
0.00156507
-5.46683e-06
0.00156773
-4.22523e-06
0.00156977
-3.22259e-06
0.0015713
-2.41304e-06
0.00157243
-1.76582e-06
-1.18994e-06
0.0033265
0.000156623
0.00346284
0.000384229
0.0035304
0.000479217
0.00353914
0.00049878
0.00350328
0.000484948
0.00343322
0.000447497
0.00334015
0.000397448
0.00323493
0.000345269
0.0031295
0.000293659
0.00303228
0.000243969
0.00294675
0.0001984
0.00287394
0.000157674
0.00281452
0.000120015
0.00276913
8.35678e-05
0.00273823
4.73215e-05
0.00272239
1.07109e-05
0.00272237
-2.75021e-05
0.00273942
-6.9777e-05
0.00277541
-0.000117259
0.00283275
-0.000171623
0.00291451
-0.000234909
0.00302456
-0.000309331
0.00316759
-0.00039726
0.00334931
-0.000501177
0.00357635
-0.000623186
0.00385618
-0.000764601
0.00419678
-0.000925124
0.00460606
-0.00110179
0.00509061
-0.00128738
0.0056532
-0.00146762
0.00629086
-0.00162146
0.00698886
-0.00171677
0.00771139
-0.00170727
0.00840439
-0.00155312
0.00900142
-0.00123413
0.00942449
-0.000745241
0.00964676
-0.000188621
0.00966218
0.000364438
0.00949106
0.000855833
0.00916783
0.00124343
0.00871985
0.0015197
0.00816811
0.00169442
0.0075332
0.00177724
0.00683904
0.00177661
0.00611399
0.00169995
0.00539219
0.00155709
0.00471118
0.00136353
0.00410579
0.0011402
0.00359807
0.000909205
0.00319366
0.000692081
0.00288604
0.000502666
0.00266179
0.000346859
0.00250559
0.000224384
0.00240249
0.000131724
0.00233853
6.441e-05
0.00230299
1.79513e-05
0.00228692
-1.24325e-05
0.00228395
-3.05718e-05
0.00228909
-4.00365e-05
0.00229856
-4.3211e-05
0.00230977
-4.23229e-05
0.00232163
-3.94958e-05
0.0023331
-3.53531e-05
0.00234359
-3.06891e-05
0.00235281
-2.60082e-05
0.0023607
-2.16147e-05
0.0023673
-1.76943e-05
0.00237274
-1.42872e-05
0.00237714
-1.13964e-05
0.00238066
-8.98572e-06
0.00238344
-7.00031e-06
0.00238559
-5.38125e-06
0.00238724
-4.05872e-06
0.00238849
-3.0173e-06
-2.00368e-06
0.00326317
9.3449e-05
0.00339056
0.000256842
0.00350721
0.000362569
0.00358978
0.000416214
0.00364191
0.000432809
0.00366556
0.00042385
0.00366249
0.000400521
0.00363919
0.000368572
0.00360349
0.000329353
0.00356017
0.000287295
0.00351219
0.000246383
0.00346453
0.000205327
0.00342083
0.000163716
0.00338389
0.000120512
0.00335552
7.56844e-05
0.003337
2.92352e-05
0.00332996
-2.04618e-05
0.00333603
-7.58469e-05
0.00335722
-0.000138444
0.00339585
-0.000210255
0.00345496
-0.000294024
0.00353818
-0.000392543
0.00364982
-0.000508907
0.0037958
-0.000647156
0.00398338
-0.000810763
0.00422155
-0.00100277
0.00452126
-0.00122483
0.00489525
-0.00147577
0.00535741
-0.00174954
0.00592051
-0.00203071
0.00659775
-0.0022987
0.0073854
-0.00250442
0.00822773
-0.00254961
0.00902732
-0.0023527
0.00967444
-0.00188125
0.0101142
-0.00118497
0.0103266
-0.000401073
0.0103226
0.000368422
0.0101361
0.00104235
0.00983422
0.00154533
0.00945353
0.0019004
0.00901093
0.00213702
0.00851523
0.00227295
0.0079725
0.00231934
0.00738697
0.00228548
0.00677233
0.00217173
0.00614364
0.00199222
0.00552568
0.00175816
0.00495158
0.00148331
0.00445039
0.00119327
0.00403531
0.000917747
0.0037075
0.000674672
0.00345953
0.000472353
0.00327897
0.000312287
0.00315213
0.000191248
0.00306651
0.000103575
0.0030113
4.27732e-05
0.00297794
2.79184e-06
0.00295965
-2.17435e-05
0.00295134
-3.49007e-05
0.00294949
-4.04721e-05
0.00295156
-4.15703e-05
0.00295564
-3.94241e-05
0.00296081
-3.58624e-05
0.00296622
-3.14199e-05
0.00297138
-2.67729e-05
0.00297603
-2.23427e-05
0.00298007
-1.83231e-05
0.00298348
-1.48104e-05
0.00298631
-1.18113e-05
0.0029886
-9.2946e-06
0.00299043
-7.21354e-06
0.00299186
-5.4877e-06
0.00299298
-4.13912e-06
-2.75516e-06
0.00323345
6.0003e-05
0.00331583
0.000174456
0.00341635
0.000262052
0.00351357
0.000318988
0.00359618
0.000350201
0.00365935
0.000360679
0.00370355
0.000356323
0.00373228
0.000339846
0.00374824
0.000313396
0.00375233
0.000283199
0.00374735
0.000251367
0.00373671
0.00021597
0.00372335
0.000177075
0.00370955
0.000134308
0.00369669
8.8546e-05
0.00368641
3.95146e-05
0.00368086
-1.49063e-05
0.00368229
-7.72836e-05
0.0036927
-0.000148854
0.003714
-0.000231553
0.0037488
-0.000328816
0.00380077
-0.000444514
0.0038745
-0.000582635
0.00397593
-0.000748589
0.00411324
-0.000948079
0.00429742
-0.00118695
0.00454316
-0.00147057
0.00486975
-0.00180236
0.00530144
-0.00218123
0.00586736
-0.00259663
0.00661004
-0.00304138
0.00750714
-0.00340152
0.00840655
-0.00344902
0.00917813
-0.00312428
0.00971486
-0.00241798
0.00998681
-0.00145692
0.0100104
-0.00042467
0.00985826
0.000520571
0.00960451
0.0012961
0.00932733
0.00182252
0.0090248
0.00220292
0.00870956
0.00245226
0.00837838
0.00260413
0.00801656
0.00268116
0.00760027
0.00270177
0.00714654
0.00262546
0.00666193
0.00247683
0.00616877
0.00225132
0.00568408
0.001968
0.00522653
0.00165081
0.00481554
0.00132874
0.00446387
0.00102634
0.00417644
0.000759783
0.00395048
0.000538245
0.0037786
0.000363129
0.00365169
0.000230491
0.00356051
0.000133953
0.00349675
6.65505e-05
0.00345342
2.159e-05
0.00342515
-6.63465e-06
0.00340788
-2.32038e-05
0.00339777
-3.14618e-05
0.0033925
-3.41488e-05
0.00339039
-3.37489e-05
0.00339019
-3.12282e-05
0.00339118
-2.77559e-05
0.00339276
-2.39298e-05
0.00339456
-2.01162e-05
0.00339632
-1.65757e-05
0.00339794
-1.3429e-05
0.00339936
-1.07092e-05
0.00340055
-8.4105e-06
0.00340153
-6.46574e-06
0.00340233
-4.93393e-06
-3.30532e-06
0.00321904
4.0959e-05
0.0032712
0.000122296
0.00334337
0.000189891
0.00342351
0.000238845
0.00350319
0.000270521
0.0035764
0.000287467
0.00364036
0.000292367
0.0036933
0.000286908
0.00373413
0.000272558
0.00376484
0.000252495
0.00378786
0.000228346
0.00380457
0.000199256
0.00381589
0.000165759
0.00382224
0.00012796
0.00382496
8.58228e-05
0.00382562
3.8851e-05
0.00382558
-1.48656e-05
0.00382629
-7.79918e-05
0.00382911
-0.000151674
0.00383585
-0.000238289
0.00384891
-0.000341872
0.00387174
-0.000467345
0.00390869
-0.000619585
0.00396517
-0.000805076
0.00404935
-0.00103225
0.00417311
-0.00131071
0.00435392
-0.00165138
0.00461736
-0.0020658
0.00499991
-0.00256378
0.00555261
-0.00314933
0.00633765
-0.00382642
0.00716181
-0.00422569
0.00780202
-0.00408923
0.00818844
-0.00351069
0.00808494
-0.00231448
0.00761357
-0.00098554
0.00721767
-2.87692e-05
0.00701918
0.000719062
0.00693444
0.00138083
0.00700674
0.00175022
0.00708373
0.00212593
0.00714681
0.00238917
0.00715372
0.00259722
0.00708998
0.0027449
0.00695251
0.00283924
0.00674333
0.00283464
0.00647038
0.00274979
0.00615318
0.00256853
0.00580913
0.00231205
0.00545879
0.00200114
0.00512528
0.00166225
0.00482555
0.00132607
0.00456646
0.00101887
0.00434934
0.00075536
0.00417249
0.00053998
0.0040325
0.000370491
0.00392455
0.000241902
0.00384327
0.000147828
0.00378339
8.14713e-05
0.00374036
3.63993e-05
0.00371008
7.07331e-06
0.00368935
-1.07317e-05
0.00367564
-2.04364e-05
0.00366673
-2.48425e-05
0.00366121
-2.57105e-05
0.00365796
-2.45004e-05
0.0036562
-2.2174e-05
0.00365543
-1.93451e-05
0.00365526
-1.64095e-05
0.00365544
-1.36007e-05
0.00365577
-1.10433e-05
0.00365616
-8.80256e-06
0.00365655
-6.85036e-06
0.00365689
-5.27849e-06
-3.56217e-06
0.00321192
2.90382e-05
0.00324666
8.75542e-05
0.00329806
0.000138497
0.00335913
0.000177773
0.00342439
0.000205259
0.00348974
0.000222118
0.0035524
0.000229705
0.00361009
0.000229222
0.0036609
0.000221749
0.00370469
0.000208704
0.00374208
0.000190955
0.00377284
0.000168502
0.00379716
0.000141433
0.00381535
0.000109769
0.00382796
7.32133e-05
0.00383595
3.08619e-05
0.00383987
-1.87847e-05
0.00383987
-7.7987e-05
0.00383698
-0.00014879
0.00383246
-0.000233769
0.00382767
-0.000337081
0.00382394
-0.000463613
0.00382385
-0.000619493
0.00383204
-0.000813267
0.00385553
-0.00105574
0.00390561
-0.00136078
0.00400039
-0.00174617
0.00416882
-0.00223421
0.00445612
-0.00285108
0.00492674
-0.00361995
0.00556123
-0.00446091
0.00583136
-0.00449581
0.00525878
-0.00351666
0.00285467
-0.00066154
0.00101854
-4.95946e-19
0.000251585
-1.56237e-18
0.000195228
-2.08756e-18
0.000635657
-2.52128e-18
0.00142247
-3.02799e-18
0.00244358
0.000487369
0.00327117
0.00129834
0.00403644
0.0016239
0.00466353
0.00197013
0.00511187
0.00229656
0.00539983
0.00255129
0.00554452
0.00268996
0.00558064
0.00271367
0.00552602
0.00262314
0.00540011
0.00243797
0.00522749
0.00217376
0.00503003
0.00185971
0.00482844
0.00152767
0.0046395
0.00120781
0.00447117
0.000923698
0.00432701
0.000684135
0.00420682
0.000490681
0.00410876
0.000339959
0.00403045
0.000226141
0.00396922
0.000142696
0.00392244
8.31809e-05
0.00388748
4.20348e-05
0.00386175
1.49951e-05
0.00384325
-1.9323e-06
0.00383019
-1.17837e-05
0.00382107
-1.65895e-05
0.0038148
-1.8226e-05
0.00381053
-1.79089e-05
0.00380769
-1.65019e-05
0.00380584
-1.45624e-05
0.00380468
-1.24372e-05
0.00380397
-1.03358e-05
0.00380356
-8.39141e-06
0.00380333
-6.62545e-06
0.00380322
-5.16624e-06
-3.51987e-06
0.00320824
2.07974e-05
0.0032329
6.28948e-05
0.00327075
0.000100646
0.00331759
0.000130936
0.00336978
0.000153073
0.00342435
0.000167543
0.00347897
0.000175081
0.00353178
0.000176421
0.00358127
0.000172257
0.00362659
0.000163381
0.00366722
0.000150328
0.00370252
0.000133203
0.00373201
0.000111944
0.00375546
8.63143e-05
0.00377272
5.59602e-05
0.00378368
1.9898e-05
0.00378819
-2.32953e-05
0.0037857
-7.54963e-05
0.00377592
-0.000139004
0.00375885
-0.000216706
0.00373431
-0.00031254
0.00370238
-0.000431676
0.00366389
-0.000581004
0.00362063
-0.000770012
0.00357644
-0.00101155
0.00353889
-0.00132323
0.00352206
-0.00172933
0.00355078
-0.00226293
0.00366476
-0.00296507
0.00388844
-0.00384363
0.00382906
-0.00440153
0.00260521
-0.00327196
0.000270618
6.24414e-20
8.89589e-19
7.03544e-19
3.70098e-19
-3.81992e-19
1.93449e-19
-6.24752e-20
9.06551e-20
-5.64534e-21
1.68653e-20
-1.01627e-20
9.9445e-19
4.0989e-20
-0.000184766
-1.45529e-18
0.000101785
0.000110942
0.000969907
0.000755774
0.00188937
0.00105067
0.00270228
0.00148364
0.00334714
0.00190643
0.00381583
0.00222127
0.00414804
0.00238146
0.00437036
0.00240082
0.00450124
0.00230708
0.00455707
0.00211794
0.00455318
0.00186359
0.00450741
0.00157344
0.00443811
0.0012771
0.00435914
0.00100267
0.00428001
0.000763265
0.00420626
0.000564434
0.00414076
0.000405457
0.00408481
0.000282092
0.00403849
0.000189018
0.00400103
0.000120638
0.00397127
7.18019e-05
0.00394805
3.82091e-05
0.00393045
1.56712e-05
0.0039171
1.56746e-06
0.00390711
-6.60313e-06
0.00389973
-1.08419e-05
0.00389427
-1.24552e-05
0.00389028
-1.25135e-05
0.00388739
-1.16684e-05
0.00388531
-1.03535e-05
0.00388382
-8.84674e-06
0.00388276
-7.33527e-06
0.00388202
-5.88321e-06
0.0038815
-4.64843e-06
-3.19876e-06
0.00320616
1.46342e-05
0.00322475
4.43057e-05
0.00325398
7.14176e-05
0.00329114
9.37759e-05
0.00333361
0.000110605
0.00337917
0.000121986
0.00342596
0.00012829
0.00347237
0.000130006
0.00351705
0.000127575
0.00355901
0.000121423
0.00359745
0.000111887
0.00363161
9.90475e-05
0.00366075
8.28035e-05
0.00368417
6.28957e-05
0.00370116
3.89689e-05
0.003711
1.00618e-05
0.00371274
-2.50425e-05
0.00370526
-6.80168e-05
0.00368726
-0.000120998
0.00365729
-0.000186733
0.00361362
-0.000268877
0.00355434
-0.000372391
0.00347742
-0.000504084
0.0033809
-0.00067349
0.00326348
-0.000894126
0.00312564
-0.00118538
0.00297183
-0.00157552
0.00281413
-0.00210523
0.00267209
-0.00282303
0.00245611
-0.00362764
0.00141468
-0.0033601
2.40922e-18
-0.0002843
2.33812e-18
1.13582e-18
5.68283e-20
-4.58085e-19
9.44767e-21
-6.4856e-21
2.16354e-23
7.49454e-23
6.46043e-23
3.54999e-25
1.91961e-22
4.12205e-24
-8.00339e-20
-1.04498e-20
9.72821e-20
1.70312e-20
-0.000404857
-8.11293e-19
-0.000806058
9.97904e-05
-0.000112745
0.000357361
0.000655671
0.000715226
0.00137137
0.00119073
0.00200177
0.00159087
0.002536
0.00184723
0.00297527
0.00196155
0.00332891
0.00195343
0.00360046
0.00184639
0.00379797
0.00166608
0.00393117
0.00144024
0.00401172
0.00119655
0.00405398
0.000960399
0.00406975
0.0007475
0.00406856
0.000565619
0.0040576
0.000416415
0.00404171
0.000297984
0.00402418
0.000206553
0.00400705
0.000137765
0.00399126
8.75898e-05
0.00397734
5.21282e-05
0.00396547
2.75478e-05
0.00395563
1.14038e-05
0.00394768
1.34839e-06
0.00394119
-4.35288e-06
0.00393596
-7.22267e-06
0.00393183
-8.38363e-06
0.0039286
-8.4373e-06
0.00392609
-7.84851e-06
0.00392417
-6.92194e-06
0.0039227
-5.86887e-06
0.0039216
-4.78057e-06
0.00392077
-3.81967e-06
-2.6508e-06
0.00320491
9.72313e-06
0.00321977
2.94503e-05
0.00324349
4.76949e-05
0.00327425
6.30187e-05
0.00331007
7.47861e-05
0.00334913
8.29177e-05
0.00338985
8.75766e-05
0.00343081
8.90441e-05
0.00347079
8.75976e-05
0.00350873
8.34821e-05
0.00354373
7.68882e-05
0.00357491
6.78655e-05
0.0036014
5.63152e-05
0.0036223
4.19941e-05
0.00363667
2.45942e-05
0.00364326
3.47669e-06
0.00364068
-2.24591e-05
0.00362715
-5.44915e-05
0.0036005
-9.43441e-05
0.00355805
-0.000144285
0.00349651
-0.000207338
0.00341177
-0.000287647
0.0032987
-0.000391019
0.00315096
-0.000525746
0.00296073
-0.000703888
0.00271866
-0.000943309
0.00241406
-0.00127092
0.00203455
-0.00172572
0.00154496
-0.00233344
0.000778161
-0.00286084
-0.000196258
-0.00129326
3.24492e-18
2.72342e-18
-2.20568e-19
-2.80116e-19
-1.00616e-21
-1.0076e-20
5.31579e-24
2.00745e-25
1.15438e-23
1.56619e-25
2.75936e-23
4.58443e-25
6.06761e-23
1.34697e-24
1.56934e-22
3.16754e-24
-1.0177e-19
7.48606e-24
2.9302e-19
3.83354e-22
-0.00147319
-1.03088e-18
-0.00113798
2.21511e-05
-0.000642864
0.000220108
-6.67384e-05
0.000614607
0.000526987
0.00099714
0.00110674
0.00126748
0.00165185
0.00141644
0.00214861
0.00145667
0.00258457
0.00141043
0.00295154
0.00129911
0.00324731
0.00114447
0.00347527
0.000968594
0.00364435
0.000791313
0.00376531
0.000626537
0.00384873
0.000482206
0.00390402
0.000361127
0.00393889
0.000263107
0.00395928
0.000186165
0.00396969
0.000127357
0.00397354
8.37374e-05
0.00397332
5.23467e-05
0.00397066
3.02128e-05
0.00396681
1.52548e-05
0.00396254
5.61031e-06
0.00395836
-1.66289e-07
0.00395445
-3.32008e-06
0.00395095
-4.88269e-06
0.00394795
-5.4308e-06
0.00394543
-5.33277e-06
0.00394337
-4.86119e-06
0.00394171
-4.21125e-06
0.00394041
-3.47971e-06
0.0039394
-2.8085e-06
-1.96279e-06
0.00320416
5.56146e-06
0.00321676
1.68539e-05
0.00323708
2.73782e-05
0.00326377
3.6319e-05
0.00329529
4.32703e-05
0.00333007
4.81367e-05
0.00336667
5.09803e-05
0.00340378
5.19344e-05
0.00344022
5.11534e-05
0.00347493
4.87698e-05
0.00350695
4.48766e-05
0.00353531
3.95015e-05
0.00355905
3.25752e-05
0.00357714
2.39047e-05
0.00358852
1.32098e-05
0.00359162
3.80524e-07
0.00358471
-1.55481e-05
0.00356554
-3.53222e-05
0.00353127
-6.00687e-05
0.00347827
-9.12931e-05
0.00340192
-0.000130986
0.00329618
-0.000181903
0.00315312
-0.000247956
0.00296218
-0.000334811
0.00270914
-0.000450842
0.00237459
-0.00060875
0.00193171
-0.000828035
0.00134234
-0.00113635
0.00054859
-0.0015397
-0.000540954
-0.0017713
6.30357e-18
-0.000261233
1.87127e-19
-2.33618e-19
-8.82592e-20
-1.34161e-19
1.82191e-24
7.41192e-26
3.45231e-24
-6.25604e-27
7.92766e-24
-1.92932e-28
1.7248e-23
3.0482e-25
3.75754e-23
4.92743e-25
9.00166e-23
8.28246e-25
6.40927e-22
7.35505e-25
-1.38195e-19
-2.84848e-24
1.02465e-18
-1.07132e-20
-0.00151076
-4.00711e-05
-0.00129893
8.2812e-06
-0.000938654
0.000254326
-0.000463452
0.000521936
7.97502e-05
0.000724277
0.00065138
0.000844812
0.00121578
0.000892267
0.00174648
0.000879729
0.00222378
0.000821816
0.00263545
0.000732795
0.00297703
0.000627016
0.00325069
0.000517647
0.00346291
0.000414318
0.00362254
0.000322577
0.00373932
0.000244346
0.00382235
0.000180078
0.00387952
0.000128995
0.00391734
8.95343e-05
0.00394114
5.99367e-05
0.00395513
3.8365e-05
0.0039623
2.30423e-05
0.00396502
1.25256e-05
0.00396503
5.6018e-06
0.00396353
1.33298e-06
0.00396129
-1.07301e-06
0.00395877
-2.36742e-06
0.00395627
-2.93116e-06
0.00395397
-3.03346e-06
0.00395196
-2.84851e-06
0.00395026
-2.51053e-06
0.00394888
-2.09902e-06
0.00394778
-1.70805e-06
-1.19931e-06
0.00320375
1.81138e-06
0.00321512
5.48079e-06
0.00323358
8.92401e-06
0.00325802
1.18734e-05
0.00328712
1.41711e-05
0.00331947
1.57889e-05
0.00335371
1.67437e-05
0.00338857
1.70737e-05
0.00342289
1.68272e-05
0.00345562
1.60461e-05
0.00348574
1.47593e-05
0.00351226
1.29763e-05
0.00353416
1.0675e-05
0.00355028
7.78493e-06
0.00355936
4.12635e-06
0.00355994
-1.96776e-07
0.00354995
-5.55217e-06
0.00352685
-1.22247e-05
0.00348739
-2.06131e-05
0.00342734
-3.12435e-05
0.00334116
-4.48015e-05
0.00322151
-6.22516e-05
0.00305853
-8.49754e-05
0.00283871
-0.000114985
0.00254314
-0.000155274
0.00214482
-0.000210429
0.0016043
-0.000287506
0.000864135
-0.00039618
-0.00014072
-0.000534846
-0.0013351
-0.000576922
5.955e-18
-2.33467e-05
-4.48226e-19
-1.33447e-19
-3.09991e-20
-1.9256e-20
1.44406e-24
-2.47048e-27
2.94762e-24
-4.5332e-28
6.53605e-24
1.71055e-25
1.18249e-23
2.08588e-26
2.58102e-23
6.30525e-26
6.17825e-23
2.10979e-25
1.80492e-22
6.84341e-25
-8.14038e-20
-8.21786e-25
5.07571e-19
-4.64527e-21
-0.00159839
-1.46639e-05
-0.00157174
-1.83724e-05
-0.00138051
6.31001e-05
-0.00101663
0.000158047
-0.000525746
0.000233394
3.94009e-05
0.000279663
0.000631886
0.00029978
0.00121296
0.000298656
0.00175361
0.000281158
0.00223426
0.000252152
0.00264452
0.00021675
0.00298232
0.000179853
0.00325183
0.000144805
0.00346098
0.000113427
0.00361897
8.63519e-05
0.00373508
6.39704e-05
0.00381799
4.60809e-05
0.00387533
3.21947e-05
0.00391354
2.17252e-05
0.00393786
1.40517e-05
0.00395232
8.57842e-06
0.00396005
4.79218e-06
0.00396338
2.27582e-06
0.00396402
6.94859e-07
0.00396313
-1.91309e-07
0.00396144
-6.69193e-07
0.00395941
-9.0566e-07
0.00395735
-9.7567e-07
0.00395544
-9.34494e-07
0.00395376
-8.31418e-07
0.00395236
-6.99242e-07
0.00395122
-5.71826e-07
-4.03216e-07
0.00320361
-1.80005e-06
0.00321457
-5.47937e-06
0.00323242
-8.91958e-06
0.00325616
-1.18677e-05
0.00328449
-1.41622e-05
0.00331606
-1.57765e-05
0.00334953
-1.6727e-05
0.00338365
-1.7052e-05
0.00341728
-1.67998e-05
0.00344934
-1.60127e-05
0.00347882
-1.47199e-05
0.00350472
-1.29315e-05
0.00352603
-1.06258e-05
0.00354154
-7.73277e-06
0.00354974
-4.07299e-06
0.0035493
2.48681e-07
0.00353815
5.60019e-06
0.00351365
1.22677e-05
0.00347239
2.06493e-05
0.00340988
3.12711e-05
0.00332026
4.48191e-05
0.00319575
6.22582e-05
0.0030258
8.49722e-05
0.00279584
0.000114974
0.00248531
0.000155259
0.00206448
0.000210412
0.00148949
0.000287488
0.000697151
0.000396156
-0.000372501
0.000534804
-0.00152629
0.000576865
5.29401e-18
2.33443e-05
-4.1864e-19
1.33321e-19
-1.42858e-20
1.9257e-20
1.28528e-24
2.49722e-27
3.02161e-24
1.20587e-27
5.25261e-24
-2.13531e-25
1.10105e-23
-2.21286e-26
2.43201e-23
-6.33506e-26
5.24444e-23
-2.10883e-25
1.36907e-22
-6.8406e-25
-7.19847e-20
8.22464e-25
2.9112e-19
4.66134e-21
-0.00160238
1.47338e-05
-0.00163935
1.85911e-05
-0.00151326
-6.2991e-05
-0.00119716
-0.000158051
-0.000730293
-0.000233477
-0.000170843
-0.000279789
0.000428855
-0.000299919
0.00102629
-0.000298784
0.0015887
-0.000281253
0.00209306
-0.000252204
0.00252657
-0.00021676
0.00288625
-0.000179826
0.0031758
-0.000144751
0.00340259
-0.000113358
0.00357522
-8.62845e-05
0.0037031
-6.39093e-05
0.00379521
-4.60308e-05
0.00385956
-3.21553e-05
0.00390298
-2.1696e-05
0.00393107
-1.40313e-05
0.00394821
-8.56539e-06
0.00395779
-4.78453e-06
0.00396233
-2.27206e-06
0.00396372
-6.9256e-07
0.00396334
1.92962e-07
0.003962
6.71003e-07
0.00396018
9.07614e-07
0.00395823
9.77881e-07
0.00395636
9.36649e-07
0.00395469
8.33227e-07
0.00395329
7.00618e-07
0.00395215
5.72555e-07
4.03236e-07
0.00320375
-5.54926e-06
0.00321512
-1.68547e-05
0.00323358
-2.73729e-05
0.00325802
-3.63132e-05
0.00328712
-4.32613e-05
0.00331947
-4.81244e-05
0.00335371
-5.09638e-05
0.00338857
-5.19129e-05
0.00342289
-5.11264e-05
0.00345562
-4.87368e-05
0.00348574
-4.48378e-05
0.00351226
-3.94575e-05
0.00353416
-3.2527e-05
0.00355028
-2.38536e-05
0.00355937
-1.31576e-05
0.00355995
-3.29482e-07
0.00354995
1.55957e-05
0.00352686
3.53645e-05
0.0034874
6.0104e-05
0.00342735
9.13199e-05
0.00334117
0.000131003
0.00322152
0.000181909
0.00305854
0.000247953
0.00283872
0.0003348
0.00254315
0.000450827
0.00214483
0.000608734
0.00160431
0.000828018
0.000864137
0.00113633
-0.000140728
0.00153967
-0.00133513
0.00177126
5.95526e-18
0.000261199
-4.48359e-19
2.33309e-19
-3.10116e-20
1.34105e-19
1.43627e-24
-7.39837e-26
2.90792e-24
6.8625e-27
6.52363e-24
1.84926e-27
1.18249e-23
-3.04871e-25
2.58107e-23
-4.92387e-25
6.17862e-23
-8.2759e-25
1.80362e-22
-7.3389e-25
-8.14094e-20
2.85369e-24
5.07672e-19
1.07314e-20
-0.00159845
4.02011e-05
-0.00157182
-8.0399e-06
-0.00138058
-0.000254239
-0.00101665
-0.000521975
-0.000525737
-0.000724395
3.94363e-05
-0.000844963
0.000631938
-0.000892422
0.00121302
-0.000879865
0.00175368
-0.000821913
0.00223432
-0.000732844
0.00264457
-0.000627017
0.00298235
-0.000517606
0.00325185
-0.000414253
0.003461
-0.0003225
0.00361898
-0.000244274
0.00373509
-0.000180014
0.003818
-0.000128943
0.00387534
-8.94941e-05
0.00391355
-5.9907e-05
0.00393786
-3.83442e-05
0.00395232
-2.30287e-05
0.00396006
-1.25172e-05
0.00396338
-5.59711e-06
0.00396402
-1.32984e-06
0.00396314
1.07548e-06
0.00396144
2.36993e-06
0.00395941
2.9336e-06
0.00395735
3.03591e-06
0.00395544
2.85079e-06
0.00395376
2.51243e-06
0.00395236
2.10045e-06
0.00395122
1.70875e-06
1.19926e-06
0.00320416
-9.71071e-06
0.00321676
-2.94523e-05
0.00323708
-4.7689e-05
0.00326378
-6.30129e-05
0.00329529
-7.47772e-05
0.00333007
-8.29055e-05
0.00336667
-8.75605e-05
0.00340378
-8.90231e-05
0.00344022
-8.75713e-05
0.00347494
-8.345e-05
0.00350695
-7.68506e-05
0.00353531
-6.78229e-05
0.00355906
-5.62686e-05
0.00357715
-4.19449e-05
0.00358853
-2.45439e-05
0.00359163
-3.42742e-06
0.00358472
2.25051e-05
0.00356556
5.45322e-05
0.00353128
9.43777e-05
0.00347829
0.00014431
0.00340194
0.000207353
0.0032962
0.000287652
0.00315314
0.000391016
0.0029622
0.000525737
0.00270916
0.000703874
0.0023746
0.000943294
0.00193172
0.0012709
0.00134235
0.00172569
0.000548612
0.0023334
-0.000540891
0.00286076
6.30271e-18
0.00129329
1.87233e-19
-2.72282e-18
-8.82369e-20
2.80006e-19
1.82126e-24
1.00749e-20
3.45254e-24
-2.0066e-25
7.92753e-24
-1.55867e-25
1.72487e-23
-4.58037e-25
3.75772e-23
-1.34599e-24
9.00218e-23
-3.16528e-24
6.40399e-22
-7.48221e-24
-1.38138e-19
-3.75183e-22
1.02497e-18
1.03155e-18
-0.00151092
-2.18636e-05
-0.00129911
-0.000219855
-0.00093875
-0.000614597
-0.000463462
-0.000997265
7.98064e-05
-0.00126766
0.000651478
-0.00141664
0.0012159
-0.00145685
0.00174661
-0.00141057
0.0022239
-0.0012992
0.00263555
-0.0011445
0.0029771
-0.000968569
0.00325075
-0.000791248
0.00346295
-0.000626453
0.00362256
-0.000482115
0.00373934
-0.000361051
0.00382236
-0.00026304
0.00387953
-0.000186113
0.00391735
-0.000127317
0.00394116
-8.37076e-05
0.00395514
-5.23254e-05
0.00396231
-3.01982e-05
0.00396503
-1.52448e-05
0.00396504
-5.60385e-06
0.00396354
1.7127e-07
0.00396129
3.32408e-06
0.00395877
4.88636e-06
0.00395627
5.43402e-06
0.00395397
5.33563e-06
0.00395196
4.86372e-06
0.00395026
4.21326e-06
0.00394888
3.48115e-06
0.00394778
2.80919e-06
1.96271e-06
0.00320491
-1.46233e-05
0.00321977
-4.4306e-05
0.00324349
-7.14123e-05
0.00327425
-9.37703e-05
0.00331007
-0.000110596
0.00334913
-0.000121974
0.00338985
-0.000128275
0.00343081
-0.000129986
0.00347079
-0.000127549
0.00350873
-0.000121392
0.00354373
-0.000111851
0.00357492
-9.90071e-05
0.00360141
-8.27594e-05
0.00362231
-6.28492e-05
0.00363669
-3.89214e-05
0.00364328
-1.00154e-05
0.0036407
2.50858e-05
0.00362717
6.80547e-05
0.00360052
0.000121029
0.00355808
0.000186755
0.00349654
0.000268891
0.0034118
0.000372395
0.00329873
0.000504081
0.00315099
0.00067348
0.00296076
0.000894113
0.00271869
0.00118537
0.00241409
0.0015755
0.00203457
0.00210521
0.00154496
0.00282301
0.000778117
0.00362761
-0.000196254
0.00336008
3.24569e-18
0.000284305
-2.20562e-19
-1.13653e-18
-1.00615e-21
4.58046e-19
5.31833e-24
6.48796e-21
1.15451e-23
-7.46047e-23
2.75953e-23
-3.54291e-25
6.06827e-23
-4.11824e-24
1.56963e-22
1.04588e-20
-1.01742e-19
-1.70143e-20
2.93638e-19
8.11659e-19
-0.0014733
-9.96823e-05
-0.00113824
-0.000356927
-0.000643056
-0.000715039
-6.67898e-05
-0.00119086
0.000527047
-0.0015911
0.00110687
-0.00184749
0.00165201
-0.00196178
0.00214878
-0.00195362
0.00258473
-0.00184653
0.00295167
-0.00166614
0.0032474
-0.00144023
0.00347532
-0.00119649
0.00364438
-0.000960306
0.00376533
-0.000747401
0.00384873
-0.000565524
0.00390402
-0.000416339
0.0039389
-0.000297921
0.00395929
-0.000206504
0.0039697
-0.000137728
0.00397356
-8.75608e-05
0.00397334
-5.21066e-05
0.00397067
-2.75319e-05
0.00396682
-1.13916e-05
0.00396255
-1.33933e-06
0.00395836
4.36023e-06
0.00395446
7.2286e-06
0.00395096
8.38849e-06
0.00394795
8.44133e-06
0.00394543
7.85187e-06
0.00394337
6.92472e-06
0.00394171
5.87097e-06
0.00394041
4.78199e-06
0.0039394
3.8203e-06
2.65064e-06
0.00320616
-2.07876e-05
0.00322475
-6.28938e-05
0.00325398
-0.000100642
0.00329114
-0.000130931
0.00333361
-0.000153064
0.00337917
-0.000167531
0.00342596
-0.000175066
0.00347237
-0.000176401
0.00351706
-0.000172233
0.00355902
-0.000163352
0.00359746
-0.000150294
0.00363162
-0.000133165
0.00366076
-0.000111903
0.00368418
-8.62713e-05
0.00370118
-5.59163e-05
0.00371102
-1.98552e-05
0.00371277
2.33348e-05
0.00370529
7.55303e-05
0.00368729
0.000139031
0.00365732
0.000216726
0.00361366
0.000312552
0.00355438
0.00043168
0.00347746
0.000581001
0.00338094
0.000770003
0.00326352
0.00101154
0.00312567
0.00132321
0.00297186
0.00172932
0.00281416
0.00226291
0.00267212
0.00296504
0.00245615
0.00384358
0.00141474
0.00440149
2.40917e-18
0.00327203
2.33798e-18
-6.22169e-20
5.68521e-20
-7.0291e-19
9.44855e-21
3.82002e-19
2.16384e-23
6.24778e-20
6.46149e-23
5.64491e-21
1.91997e-22
1.01548e-20
-8.00608e-20
-4.0994e-20
9.74703e-20
1.45583e-18
-0.000404927
-0.000110872
-0.000806489
-0.000755305
-0.000113066
-0.00105035
0.000655619
-0.00148373
0.00137147
-0.00190672
0.00200195
-0.00222158
0.00253621
-0.00238175
0.00297546
-0.00240103
0.00332908
-0.00230724
0.00360058
-0.00211803
0.00379805
-0.00186361
0.0039312
-0.00157339