/*--------------------------------*- C++ -*----------------------------------*\
| =========                 |                                                 |
| \\      /  F ield         | OpenFOAM: The Open Source CFD Toolbox           |
|  \\    /   O peration     | Version:  2206                                  |
|   \\  /    A nd           | Website:  www.openfoam.com                      |
|    \\/     M anipulation  |                                                 |
\*---------------------------------------------------------------------------*/
FoamFile
{
    version     2.0;
    format      ascii;
    arch        "LSB;label=32;scalar=64";
    class       volVectorField;
    location    "0.8";
    object      U;
}
// * * * * * * * * * * * * * * * * * * * * * * * * * * * * * * * * * * * * * //

dimensions      [0 1 -1 0 0 0 0];

internalField   nonuniform List<vector> 
1875
(
(0.792544 0.0207711 0)
(0.749489 0.08582 0)
(0.648189 0.0835154 0)
(0.515311 0.0486593 0)
(0.419344 0.0245855 0)
(0.356437 0.0132865 0)
(0.312675 0.00721418 0)
(0.281399 0.00376305 0)
(0.259214 0.00188707 0)
(0.243389 0.000871901 0)
(0.232 0.000274199 0)
(0.223905 -0.000123096 0)
(0.218443 -0.000459105 0)
(0.215281 -0.000804158 0)
(0.214427 -0.00118689 0)
(0.215713 -0.00168519 0)
(0.219215 -0.00228646 0)
(0.225301 -0.00301755 0)
(0.234419 -0.00391869 0)
(0.247078 -0.00504893 0)
(0.263978 -0.00646665 0)
(0.286014 -0.0082344 0)
(0.314277 -0.0104197 0)
(0.35007 -0.0130873 0)
(0.394884 -0.0162812 0)
(0.450323 -0.0199982 0)
(0.51796 -0.0241454 0)
(0.599068 -0.0284827 0)
(0.694229 -0.0325493 0)
(0.802759 -0.0355849 0)
(0.921972 -0.0365118 0)
(1.04646 -0.0339365 0)
(1.16782 -0.0262325 0)
(1.27447 -0.0126327 0)
(1.35251 0.00456483 0)
(1.38519 0.0252733 0)
(1.37072 0.0426235 0)
(1.30869 0.0579779 0)
(1.20366 0.0672707 0)
(1.06707 0.067576 0)
(0.914753 0.0601699 0)
(0.759936 0.0483651 0)
(0.623296 0.035719 0)
(0.497402 0.0203069 0)
(0.396663 0.0102117 0)
(0.316719 0.0056676 0)
(0.254508 0.00348641 0)
(0.206855 0.00323823 0)
(0.174585 0.00219186 0)
(0.150667 0.000314732 0)
(0.135717 -0.00035603 0)
(0.127735 -0.000927066 0)
(0.12476 -0.00131965 0)
(0.125236 -0.00139995 0)
(0.127949 -0.00146355 0)
(0.132144 -0.00147513 0)
(0.137239 -0.00137883 0)
(0.14257 -0.00138165 0)
(0.147817 -0.00142497 0)
(0.152724 -0.00144358 0)
(0.157155 -0.00131212 0)
(0.161051 -0.00109316 0)
(0.164371 -0.000884094 0)
(0.167086 -0.000727897 0)
(0.169361 -0.000584901 0)
(0.171211 -0.000464059 0)
(0.172697 -0.000364291 0)
(0.173878 -0.000283523 0)
(0.174807 -0.000218615 0)
(0.175531 -0.00016702 0)
(0.17609 -0.000126132 0)
(0.176516 -9.39661e-05 0)
(0.176836 -6.83978e-05 0)
(0.177074 -4.68431e-05 0)
(0.177272 -4.21528e-05 0)
(1.0139 0.122223 0)
(1.05114 0.187606 0)
(1.03828 0.178756 0)
(0.989271 0.157743 0)
(0.92507 0.128941 0)
(0.857366 0.0975427 0)
(0.79657 0.0714549 0)
(0.743572 0.0519726 0)
(0.69926 0.037978 0)
(0.663233 0.0278447 0)
(0.634489 0.0202694 0)
(0.612012 0.014358 0)
(0.594942 0.00941414 0)
(0.582742 0.00491982 0)
(0.575173 0.000593181 0)
(0.572217 -0.00359846 0)
(0.57364 -0.00810843 0)
(0.579931 -0.0132704 0)
(0.591571 -0.0192285 0)
(0.609213 -0.0262233 0)
(0.633754 -0.0345548 0)
(0.666354 -0.0445497 0)
(0.708435 -0.0565474 0)
(0.761682 -0.0708735 0)
(0.828024 -0.0877717 0)
(0.909549 -0.107309 0)
(1.00835 -0.129232 0)
(1.12628 -0.152776 0)
(1.26455 -0.176428 0)
(1.42318 -0.197655 0)
(1.60016 -0.212788 0)
(1.79058 -0.217063 0)
(1.98589 -0.205005 0)
(2.17411 -0.171977 0)
(2.33815 -0.116118 0)
(2.46016 -0.041208 0)
(2.52302 0.0422581 0)
(2.52233 0.116679 0)
(2.45972 0.184004 0)
(2.34036 0.23236 0)
(2.17515 0.258263 0)
(1.97589 0.26258 0)
(1.7557 0.248891 0)
(1.52658 0.22188 0)
(1.30034 0.186836 0)
(1.09519 0.149483 0)
(0.919508 0.114246 0)
(0.776863 0.0840913 0)
(0.666052 0.0592397 0)
(0.583043 0.039371 0)
(0.524005 0.0239763 0)
(0.484078 0.0122315 0)
(0.458294 0.00376167 0)
(0.443507 -0.0018752 0)
(0.437139 -0.00565351 0)
(0.436258 -0.00795332 0)
(0.438755 -0.00920106 0)
(0.443526 -0.00933148 0)
(0.44918 -0.0089604 0)
(0.455111 -0.00819112 0)
(0.460924 -0.00725136 0)
(0.466283 -0.00627277 0)
(0.471051 -0.00531963 0)
(0.475181 -0.00443488 0)
(0.478677 -0.00364083 0)
(0.481578 -0.00294872 0)
(0.48395 -0.0023607 0)
(0.485866 -0.00187028 0)
(0.487395 -0.0014671 0)
(0.488602 -0.00113947 0)
(0.489543 -0.000875278 0)
(0.490269 -0.00066342 0)
(0.490821 -0.000493699 0)
(0.491227 -0.00035694 0)
(0.491577 -0.000245165 0)
(1.0127 0.0738961 0)
(1.05997 0.148208 0)
(1.09711 0.166529 0)
(1.10959 0.163574 0)
(1.10336 0.154819 0)
(1.086 0.139915 0)
(1.05999 0.119898 0)
(1.02798 0.0988063 0)
(0.99417 0.0798854 0)
(0.962094 0.0638208 0)
(0.933334 0.0502778 0)
(0.908526 0.0387259 0)
(0.887825 0.0284502 0)
(0.871403 0.0188358 0)
(0.859453 0.00948253 0)
(0.85215 0.000163257 0)
(0.849607 -0.00942354 0)
(0.852142 -0.0201103 0)
(0.860324 -0.0321073 0)
(0.874761 -0.0458667 0)
(0.896294 -0.0619324 0)
(0.926016 -0.0808958 0)
(0.965263 -0.103369 0)
(1.01565 -0.129959 0)
(1.07911 -0.161157 0)
(1.15784 -0.197198 0)
(1.25427 -0.237829 0)
(1.37091 -0.281998 0)
(1.51007 -0.327472 0)
(1.67335 -0.370231 0)
(1.86077 -0.404293 0)
(2.07004 -0.42153 0)
(2.29392 -0.411294 0)
(2.51921 -0.364911 0)
(2.72594 -0.278802 0)
(2.89088 -0.157287 0)
(2.99449 -0.0185322 0)
(3.03268 0.122183 0)
(3.00841 0.242646 0)
(2.92894 0.340672 0)
(2.80561 0.409566 0)
(2.64718 0.449497 0)
(2.45991 0.46268 0)
(2.25012 0.452095 0)
(2.02561 0.420968 0)
(1.79653 0.37296 0)
(1.57365 0.313785 0)
(1.37045 0.251205 0)
(1.19554 0.191737 0)
(1.05318 0.139629 0)
(0.9429 0.0966204 0)
(0.86103 0.0627692 0)
(0.802747 0.0371276 0)
(0.763334 0.0182587 0)
(0.738239 0.0049459 0)
(0.723444 -0.00395325 0)
(0.715844 -0.00937701 0)
(0.713378 -0.0122074 0)
(0.714034 -0.0132279 0)
(0.716532 -0.0131017 0)
(0.719914 -0.0123242 0)
(0.723609 -0.0110754 0)
(0.727315 -0.00964469 0)
(0.730785 -0.00820857 0)
(0.733883 -0.00685595 0)
(0.736562 -0.00563444 0)
(0.738824 -0.00456853 0)
(0.740699 -0.00365944 0)
(0.742228 -0.00289878 0)
(0.743458 -0.00227162 0)
(0.744434 -0.0017599 0)
(0.745197 -0.00134555 0)
(0.745788 -0.00100983 0)
(0.746223 -0.00074339 0)
(0.746623 -0.000495515 0)
(1.00548 0.0375121 0)
(1.0349 0.0951593 0)
(1.07849 0.130773 0)
(1.1123 0.145517 0)
(1.1317 0.146782 0)
(1.14467 0.13972 0)
(1.14651 0.128951 0)
(1.14214 0.117108 0)
(1.1327 0.103941 0)
(1.11994 0.0891294 0)
(1.10516 0.0740131 0)
(1.08998 0.059889 0)
(1.0755 0.0465082 0)
(1.0627 0.0333719 0)
(1.05237 0.0202137 0)
(1.04498 0.00679824 0)
(1.04086 -0.00739358 0)
(1.04058 -0.0230479 0)
(1.04471 -0.0406462 0)
(1.05392 -0.0607736 0)
(1.069 -0.0841572 0)
(1.09103 -0.111602 0)
(1.1212 -0.143992 0)
(1.16109 -0.182255 0)
(1.21276 -0.227278 2.30603e-33)
(1.27872 -0.279696 -2.24606e-33)
(1.36206 -0.339608 0)
(1.46643 -0.406252 0)
(1.59604 -0.477356 0)
(1.75502 -0.547861 0)
(1.94726 -0.610363 0)
(2.17619 -0.651604 0)
(2.43464 -0.652302 0)
(2.70003 -0.597489 0)
(2.92937 -0.479822 0)
(3.10654 -0.296659 0)
(3.20822 -0.0946855 0)
(3.24502 0.107631 0)
(3.21198 0.293106 0)
(3.13125 0.435137 0)
(3.02116 0.538106 0)
(2.89044 0.607466 0)
(2.74308 0.647291 0)
(2.58059 0.658458 0)
(2.40342 0.642408 0)
(2.21432 0.601581 0)
(2.01822 0.540323 0)
(1.82125 0.463578 0)
(1.63194 0.378209 0)
(1.46233 0.293967 0)
(1.31877 0.218095 0)
(1.20312 0.154224 0)
(1.11404 0.103123 0)
(1.04816 0.0639727 0)
(1.0012 0.0352016 0)
(0.968906 0.0150087 0)
(0.947628 0.00149488 0)
(0.934374 -0.00695453 0)
(0.926798 -0.0117981 0)
(0.922909 -0.0138687 0)
(0.92154 -0.0141009 0)
(0.921819 -0.0135876 0)
(0.922843 -0.0124177 0)
(0.924368 -0.0109268 0)
(0.926074 -0.00936085 0)
(0.927763 -0.00784198 0)
(0.92931 -0.00646213 0)
(0.930674 -0.00524724 0)
(0.93184 -0.00420542 0)
(0.932813 -0.00332942 0)
(0.93361 -0.00260335 0)
(0.93425 -0.00200861 0)
(0.934761 -0.00152012 0)
(0.935138 -0.0011385 0)
(0.935511 -0.00075523 0)
(1.00295 0.0231281 0)
(1.01945 0.0645825 0)
(1.05007 0.0949199 0)
(1.08359 0.113878 0)
(1.11235 0.123006 0)
(1.13532 0.124391 0)
(1.15186 0.120857 0)
(1.16257 0.113452 0)
(1.17028 0.102467 0)
(1.17274 0.0910877 0)
(1.17227 0.0804916 0)
(1.16979 0.069013 0)
(1.16587 0.0566196 0)
(1.16143 0.0428654 0)
(1.15708 0.0279129 0)
(1.15338 0.0121553 0)
(1.15078 -0.00480363 0)
(1.14997 -0.0236695 0)
(1.15169 -0.0451006 0)
(1.15654 -0.0698022 0)
(1.16513 -0.0987382 0)
(1.1785 -0.132751 0)
(1.19784 -0.172964 0)
(1.22485 -0.221133 0)
(1.26167 -0.278537 0)
(1.31124 -0.346474 0)
(1.37746 -0.425939 0)
(1.46552 -0.517005 0)
(1.58231 -0.618098 0)
(1.73529 -0.724408 0)
(1.93664 -0.829813 0)
(2.19681 -0.914458 0)
(2.48746 -0.944753 0)
(2.75562 -0.888602 0)
(2.95403 -0.721691 0)
(3.10477 -0.460945 0)
(3.13749 -0.166902 0)
(3.11727 0.107498 0)
(3.05215 0.34102 0)
(2.96499 0.513004 0)
(2.87203 0.634579 0)
(2.7723 0.716242 0)
(2.67101 0.763423 0)
(2.56754 0.785242 0)
(2.44401 0.782697 0)
(2.30711 0.753445 0)
(2.15879 0.703388 0)
(2.00487 0.635495 0)
(1.85073 0.550395 0)
(1.70117 0.454028 0)
(1.56431 0.357438 0)
(1.4447 0.268877 0)
(1.34489 0.193108 0)
(1.26518 0.131918 0)
(1.20376 0.0848266 0)
(1.15783 0.0500967 0)
(1.12444 0.0255112 0)
(1.10085 0.00889595 0)
(1.08458 -0.00168818 0)
(1.07374 -0.0079203 0)
(1.06694 -0.0111385 0)
(1.06293 -0.0123511 0)
(1.06063 -0.0122059 0)
(1.05963 -0.0114829 0)
(1.05933 -0.0102627 0)
(1.05951 -0.00888016 0)
(1.05995 -0.00749793 0)
(1.0605 -0.00620422 0)
(1.06107 -0.00505251 0)
(1.06161 -0.00405499 0)
(1.06209 -0.00320841 0)
(1.0625 -0.00250258 0)
(1.06284 -0.00191245 0)
(1.0631 -0.001451 0)
(1.06337 -0.000968486 0)
(1.0017 0.0155338 0)
(1.01148 0.0449974 0)
(1.03161 0.0687077 0)
(1.05682 0.0853898 0)
(1.0826 0.0957869 0)
(1.10682 0.100891 0)
(1.12842 0.101686 0)
(1.14673 0.0988374 0)
(1.16149 0.0930888 0)
(1.17245 0.0855547 0)
(1.18066 0.0767544 0)
(1.18668 0.0663525 0)
(1.19124 0.0544633 0)
(1.19385 0.0415265 0)
(1.19506 0.0279056 0)
(1.19552 0.0130731 0)
(1.19558 -0.00397523 0)
(1.19557 -0.0238493 0)
(1.196 -0.0469711 0)
(1.19742 -0.0737443 0)
(1.20039 -0.105365 0)
(1.2057 -0.143589 0)
(1.21487 -0.189769 0)
(1.22917 -0.245402 0)
(1.25072 -0.312811 0)
(1.28253 -0.394426 0)
(1.32906 -0.492708 0)
(1.39676 -0.609837 0)
(1.49532 -0.746817 0)
(1.63665 -0.901949 0)
(1.84586 -1.07605 0)
(2.11303 -1.22783 0)
(2.34678 -1.2521 0)
(2.52393 -1.14236 0)
(2.55946 -0.905549 0)
(2.45088 -0.550367 0)
(2.31405 -0.166797 0)
(2.21263 0.179815 0)
(2.1813 0.445962 0)
(2.1827 0.603557 0)
(2.20391 0.722891 0)
(2.22687 0.797998 0)
(2.23897 0.850087 0)
(2.23149 0.878782 0)
(2.20098 0.897411 0)
(2.14693 0.882931 0)
(2.06685 0.841411 0)
(1.9764 0.769132 0)
(1.87037 0.679437 0)
(1.75953 0.578717 0)
(1.65083 0.474525 0)
(1.55135 0.374273 0)
(1.46386 0.283434 0)
(1.3896 0.205963 0)
(1.32837 0.143268 0)
(1.27928 0.0947912 0)
(1.24097 0.0588095 0)
(1.21184 0.0331251 0)
(1.19018 0.0155086 0)
(1.17444 0.00394897 0)
(1.16325 -0.0031933 0)
(1.15551 -0.00719598 0)
(1.15032 -0.00905287 0)
(1.14692 -0.00957017 0)
(1.14477 -0.00924218 0)
(1.14347 -0.00845648 0)
(1.14274 -0.00744515 0)
(1.14237 -0.00635812 0)
(1.14225 -0.00530231 0)
(1.14227 -0.00433705 0)
(1.14236 -0.00348576 0)
(1.14248 -0.00275583 0)
(1.14261 -0.00213065 0)
(1.14272 -0.00163351 0)
(1.14284 -0.0010984 0)
(1.00107 0.0108584 0)
(1.00738 0.0320247 0)
(1.02106 0.0500612 0)
(1.03942 0.0637342 0)
(1.05973 0.0731013 0)
(1.0804 0.078628 0)
(1.1006 0.0809051 0)
(1.11957 0.0803499 0)
(1.13666 0.0773573 0)
(1.15143 0.072486 0)
(1.16406 0.0660799 0)
(1.17471 0.0582197 0)
(1.18322 0.0490123 0)
(1.19001 0.0382782 0)
(1.19467 0.0258405 0)
(1.19781 0.0116354 0)
(1.19972 -0.00482464 0)
(1.2002 -0.0242059 0)
(1.19972 -0.0471041 0)
(1.19855 -0.0743437 0)
(1.19702 -0.107304 0)
(1.19564 -0.147279 0)
(1.19492 -0.195959 0)
(1.19601 -0.255944 0)
(1.20066 -0.330263 0)
(1.21162 -0.422591 0)
(1.23333 -0.537418 0)
(1.27283 -0.679991 0)
(1.34156 -0.855778 0)
(1.45557 -1.07006 0)
(1.63739 -1.32816 0)
(1.82131 -1.44372 0)
(1.79266 -1.35237 0)
(1.48238 -0.968475 -5.0571e-19)
(0.984319 -0.440484 1.0723e-18)
(0.461212 -0.057651 1.50675e-16)
(0.0865526 0.00699842 -5.59296e-32)
(0.285331 0.0555056 0)
(0.554558 0.210567 4.41114e-18)
(0.646549 0.395781 0)
(0.907833 0.577385 0)
(1.14463 0.679916 0)
(1.36984 0.762807 0)
(1.54016 0.828538 0)
(1.65584 0.871065 0)
(1.72153 0.883709 0)
(1.74563 0.874762 0)
(1.7418 0.834464 0)
(1.71171 0.76279 0)
(1.66294 0.669913 0)
(1.60327 0.563947 0)
(1.53916 0.455344 0)
(1.47732 0.35462 0)
(1.4213 0.267329 0)
(1.37258 0.195296 0)
(1.33149 0.137705 0)
(1.29762 0.0931447 0)
(1.27029 0.0598579 0)
(1.24872 0.0358381 0)
(1.23206 0.0190857 0)
(1.21949 0.00782994 0)
(1.21018 0.000642741 0)
(1.20342 -0.00361771 0)
(1.19861 -0.00586645 0)
(1.19525 -0.00676229 0)
(1.19292 -0.00682082 0)
(1.19133 -0.00639583 0)
(1.19025 -0.00572134 0)
(1.18955 -0.00494418 0)
(1.1891 -0.00415628 0)
(1.18882 -0.00341201 0)
(1.18866 -0.00274377 0)
(1.18856 -0.00215064 0)
(1.18852 -0.00166694 0)
(1.18849 -0.00113051 0)
(1.00074 0.00774916 0)
(1.00516 0.0230619 0)
(1.015 0.0366015 0)
(1.02869 0.0473186 0)
(1.04453 0.0550613 0)
(1.06145 0.0600398 0)
(1.07867 0.0625287 0)
(1.0956 0.0628109 0)
(1.11169 0.0611612 0)
(1.12657 0.0579072 0)
(1.14003 0.0532474 0)
(1.15194 0.0471886 0)
(1.16208 0.0397196 0)
(1.17038 0.0307919 0)
(1.17676 0.0203108 0)
(1.18116 0.00798967 0)
(1.1836 -0.00661522 0)
(1.18395 -0.0241137 0)
(1.18207 -0.0452826 0)
(1.1779 -0.0710087 0)
(1.17144 -0.102487 0)
(1.16267 -0.141361 0)
(1.15172 -0.189752 0)
(1.13899 -0.250476 0)
(1.12533 -0.327287 4.09771e-32)
(1.11244 -0.425209 -4.02208e-32)
(1.10357 -0.550963 0)
(1.1047 -0.713439 0)
(1.1255 -0.923897 0)
(1.1803 -1.19122 0)
(1.25808 -1.45532 0)
(1.10165 -1.35853 0)
(0.543442 -0.735321 0)
(-0.190908 -0.164174 -1.27804e-18)
(0 0 0)
(0 0 0)
(0 0 0)
(0 0 0)
(0 0 0)
(-0.236735 0.0952039 0)
(-0.0186509 0.22108 0)
(0.149076 0.353471 0)
(0.444337 0.479682 0)
(0.72653 0.61041 0)
(0.960715 0.721241 0)
(1.13443 0.793883 0)
(1.25491 0.818887 0)
(1.33876 0.804706 0)
(1.39245 0.761829 0)
(1.42031 0.689701 0)
(1.42661 0.598918 0)
(1.41733 0.49951 0)
(1.39816 0.400335 0)
(1.37442 0.310407 0)
(1.34926 0.233005 0)
(1.32523 0.169741 0)
(1.30341 0.120004 0)
(1.28445 0.0820038 0)
(1.26855 0.0537544 0)
(1.25555 0.0332302 0)
(1.24514 0.0186874 0)
(1.23692 0.00890031 0)
(1.23067 0.00251913 0)
(1.22588 -0.00140034 0)
(1.22231 -0.00354012 0)
(1.21965 -0.00451851 0)
(1.21769 -0.00475875 0)
(1.21624 -0.0045678 0)
(1.21519 -0.00414172 0)
(1.21443 -0.00360628 0)
(1.21389 -0.00304027 0)
(1.2135 -0.00249575 0)
(1.21322 -0.00198722 0)
(1.21304 -0.0015607 0)
(1.21287 -0.00106946 0)
(1.00056 0.00551537 0)
(1.00387 0.0164857 0)
(1.01136 0.0264116 0)
(1.02202 0.0345175 0)
(1.03473 0.0405642 0)
(1.04866 0.0446121 0)
(1.06321 0.0468192 0)
(1.07791 0.0473661 0)
(1.09224 0.0464197 0)
(1.10586 0.044156 0)
(1.11847 0.0406994 0)
(1.12987 0.0360763 0)
(1.13982 0.0302624 0)
(1.14808 0.0231946 0)
(1.15443 0.0147407 0)
(1.15869 0.00457419 0)
(1.16057 -0.00771568 0)
(1.15976 -0.0227009 0)
(1.15588 -0.0410827 0)
(1.14851 -0.0637464 0)
(1.13716 -0.0918983 0)
(1.12127 -0.127159 0)
(1.10026 -0.171723 0)
(1.0735 -0.228622 0)
(1.0405 -0.302074 0)
(1.00117 -0.398037 0)
(0.956283 -0.525006 0)
(0.908509 -0.695026 0)
(0.863044 -0.923443 0)
(0.830594 -1.20435 0)
(0.695712 -1.29794 0)
(0.115409 -0.661887 0)
(0 0 0)
(0 0 0)
(0 0 0)
(0 0 0)
(0 0 0)
(0 0 0)
(0 0 0)
(0 0 0)
(-0.409827 0.036292 -3.527e-17)
(-0.289219 0.110112 -3.72653e-16)
(-0.157937 0.191686 0)
(0.0825907 0.330544 0)
(0.322908 0.480754 0)
(0.537539 0.600466 0)
(0.718698 0.671319 0)
(0.868876 0.695959 0)
(0.99181 0.681042 0)
(1.08815 0.63535 0)
(1.16045 0.567212 0)
(1.21124 0.485416 0)
(1.24371 0.399265 0)
(1.26207 0.317376 0)
(1.27053 0.244742 0)
(1.27237 0.183484 0)
(1.27014 0.133771 0)
(1.26574 0.0946687 0)
(1.26032 0.0647205 0)
(1.25483 0.0424322 0)
(1.24963 0.0263791 0)
(1.24498 0.0151417 0)
(1.24093 0.00740348 0)
(1.23751 0.00246795 0)
(1.23479 -0.00051914 0)
(1.23254 -0.00220486 0)
(1.23072 -0.00298762 0)
(1.22927 -0.00322475 0)
(1.22813 -0.00313072 0)
(1.22725 -0.00285044 0)
(1.22656 -0.00247896 0)
(1.22604 -0.00208182 0)
(1.22564 -0.00168492 0)
(1.22537 -0.00134046 0)
(1.22507 -0.000927509 0)
(1.00045 0.0037943 0)
(1.00309 0.0113648 0)
(1.0091 0.0183176 0)
(1.01782 0.0241188 0)
(1.02842 0.0285475 0)
(1.04026 0.0315904 0)
(1.05284 0.0333186 0)
(1.0657 0.033844 0)
(1.07846 0.0332757 0)
(1.09071 0.0317115 0)
(1.10217 0.0292264 0)
(1.11258 0.02584 0)
(1.12165 0.0215208 0)
(1.12912 0.0161882 0)
(1.13468 0.00974126 0)
(1.13806 0.00188808 0)
(1.1388 -0.00769921 0)
(1.13641 -0.0195004 0)
(1.1303 -0.0341316 0)
(1.11971 -0.0523934 0)
(1.10373 -0.0753555 0)
(1.08123 -0.104471 0)
(1.0508 -0.141754 0)
(1.0107 -0.190061 0)
(0.958836 -0.253511 5.74796e-33)
(0.892655 -0.338094 -5.72693e-33)
(0.809314 -0.452743 0)
(0.705497 -0.610427 0)
(0.582903 -0.823976 0)
(0.409997 -1.042 0)
(0.00990715 -0.773092 -1.84509e-16)
(-0.402678 -0.111502 0)
(0 0 0)
(0 0 0)
(0 0 0)
(0 0 0)
(0 0 0)
(0 0 0)
(0 0 0)
(0 0 0)
(0 0 0)
(-0.452084 0.0156633 0)
(-0.394457 0.0212294 0)
(-0.292128 0.120905 0)
(-0.113453 0.267536 0)
(0.0754143 0.397858 0)
(0.260304 0.486677 0)
(0.435574 0.53246 0)
(0.598152 0.5406 0)
(0.744084 0.518774 0)
(0.869477 0.474345 0)
(0.972848 0.415128 0)
(1.05434 0.349106 0)
(1.11579 0.283429 0)
(1.16055 0.223032 0)
(1.19193 0.170591 0)
(1.2131 0.126961 0)
(1.22675 0.0919147 0)
(1.23503 0.064607 0)
(1.23957 0.0438473 0)
(1.24158 0.0285242 0)
(1.24199 0.0175699 0)
(1.24139 0.00988993 0)
(1.24033 0.00472456 0)
(1.23899 0.00142616 0)
(1.23762 -0.000475733 0)
(1.23638 -0.00149691 0)
(1.23519 -0.00198745 0)
(1.23417 -0.00212209 0)
(1.23331 -0.00204056 0)
(1.23259 -0.00183713 0)
(1.23202 -0.0015791 0)
(1.23155 -0.00129823 0)
(1.23122 -0.00104432 0)
(1.23085 -0.000728135 0)
(1.00038 0.00238261 0)
(1.00262 0.00714211 0)
(1.00774 0.0115576 0)
(1.01524 0.0152942 0)
(1.02449 0.0181912 0)
(1.03496 0.0202145 0)
(1.04622 0.0213919 0)
(1.05783 0.0217827 0)
(1.06943 0.0214512 0)
(1.08062 0.0204529 0)
(1.09112 0.0188294 0)
(1.10062 0.0165914 0)
(1.10883 0.0137118 0)
(1.11545 0.0101206 0)
(1.12012 0.0057273 0)
(1.12248 0.000404213 0)
(1.12203 -0.00618148 0)
(1.11813 -0.0143346 0)
(1.10998 -0.0245163 0)
(1.09662 -0.0373313 0)
(1.07677 -0.0535818 0)
(1.04879 -0.0743691 0)
(1.01058 -0.101246 0)
(0.959339 -0.136444 0)
(0.891351 -0.183236 0)
(0.801658 -0.246539 0)
(0.683602 -0.333798 0)
(0.528643 -0.455657 0)
(0.327352 -0.615876 0)
(0.0151142 -0.724242 0)
(-0.336307 -0.414263 -3.80208e-16)
(0 0 0)
(0 0 0)
(0 0 0)
(0 0 0)
(0 0 0)
(0 0 0)
(0 0 0)
(0 0 0)
(0 0 0)
(0 0 0)
(0 0 0)
(-0.429173 -0.0270472 0)
(-0.440566 0.0182757 0)
(-0.36058 0.121412 0)
(-0.222775 0.229576 0)
(-0.0600477 0.308483 0)
(0.115469 0.354524 0)
(0.293585 0.371011 0)
(0.465513 0.363472 0)
(0.623793 0.337894 0)
(0.763227 0.300174 0)
(0.881164 0.256091 0)
(0.977255 0.210959 0)
(1.05287 0.168515 0)
(1.11048 0.130845 0)
(1.15311 0.0988404 0)
(1.18377 0.0726465 0)
(1.20517 0.0518865 0)
(1.21958 0.0358901 0)
(1.22885 0.0239251 0)
(1.23447 0.0152309 0)
(1.23756 0.00907674 0)
(1.23895 0.00487251 0)
(1.23926 0.00211218 0)
(1.23893 0.000399451 0)
(1.2383 -0.00055298 0)
(1.23753 -0.00104588 0)
(1.23672 -0.00125599 0)
(1.23596 -0.00128066 0)
(1.23528 -0.00119299 0)
(1.2347 -0.00104709 0)
(1.23421 -0.000872576 0)
(1.23385 -0.000708763 0)
(1.23344 -0.000497397 0)
(1.00034 0.00114831 0)
(1.00236 0.00344668 0)
(1.00699 0.00559129 0)
(1.01382 0.00742294 0)
(1.02232 0.00885484 0)
(1.03203 0.00986366 0)
(1.04253 0.0104586 0)
(1.05342 0.0106643 0)
(1.06433 0.0105103 0)
(1.07489 0.0100224 0)
(1.08477 0.00921891 0)
(1.0937 0.00810428 0)
(1.10134 0.006663 0)
(1.10737 0.00484923 0)
(1.11141 0.00258211 0)
(1.11297 -7.62579e-05 0)
(1.11168 -0.00342668 0)
(1.1067 -0.00759224 0)
(1.09716 -0.0128183 0)
(1.08192 -0.0194284 0)
(1.05949 -0.0278513 0)
(1.02789 -0.0386803 0)
(0.984509 -0.0527612 0)
(0.925818 -0.07132 0)
(0.846964 -0.0961711 2.54839e-32)
(0.741165 -0.130068 -2.5979e-32)
(0.598906 -0.177227 0)
(0.407027 -0.243349 0)
(0.140682 -0.326776 0)
(-0.247712 -0.344036 0)
(-0.456567 -0.087872 1.27678e-16)
(0 0 0)
(0 0 0)
(0 0 0)
(0 0 0)
(0 0 0)
(0 0 0)
(0 0 0)
(0 0 0)
(0 0 0)
(0 0 0)
(0 0 0)
(-0.473443 -0.0224972 -2.97705e-16)
(-0.482256 -0.00859908 0)
(-0.476137 0.0418198 0)
(-0.382894 0.100716 0)
(-0.244868 0.147975 0)
(-0.0772995 0.176768 0)
(0.104747 0.189029 0)
(0.289257 0.187907 0)
(0.466246 0.176756 0)
(0.628351 0.159475 0)
(0.76755 0.136624 0)
(0.883652 0.112881 0)
(0.978437 0.0906406 0)
(1.05289 0.0709009 0)
(1.10971 0.0539813 0)
(1.15193 0.0399947 0)
(1.18245 0.0288124 0)
(1.20385 0.0201335 0)
(1.21833 0.0135898 0)
(1.22774 0.00879383 0)
(1.23352 0.0053687 0)
(1.23677 0.00299898 0)
(1.23833 0.00142864 0)
(1.23884 0.000458689 0)
(1.23871 -9.86971e-05 0)
(1.23827 -0.000420221 0)
(1.23766 -0.000568212 0)
(1.23699 -0.000608755 0)
(1.23636 -0.000582337 0)
(1.2358 -0.000518704 0)
(1.2353 -0.000437022 0)
(1.23494 -0.000357485 0)
(1.23451 -0.000251592 0)
(1.00033 1.7827e-06 0)
(1.00224 1.9262e-07 0)
(1.00673 6.46106e-07 0)
(1.01336 8.82722e-07 0)
(1.02162 1.37984e-06 0)
(1.03108 1.93821e-06 0)
(1.04134 2.6057e-06 0)
(1.05199 3.38581e-06 0)
(1.06268 4.28931e-06 0)
(1.07302 5.23009e-06 0)
(1.08271 6.17089e-06 0)
(1.09143 7.01983e-06 0)
(1.09888 7.72567e-06 0)
(1.10472 8.19602e-06 0)
(1.10859 8.36694e-06 0)
(1.10979 8.11784e-06 0)
(1.10817 7.58901e-06 0)
(1.10281 6.77402e-06 0)
(1.09279 5.69485e-06 0)
(1.07689 4.3517e-06 0)
(1.05355 2.7783e-06 0)
(1.02068 1.0637e-06 0)
(0.975492 -4.97841e-07 0)
(0.914188 -1.67313e-06 0)
(0.831503 -2.34554e-06 0)
(0.72001 -2.63782e-06 0)
(0.569171 -2.84104e-06 0)
(0.36402 -3.70104e-06 0)
(0.0727114 -6.35399e-06 0)
(-0.322257 -7.93549e-06 0)
(-0.465258 -1.40852e-06 0)
(0 0 0)
(0 0 0)
(0 0 0)
(0 0 0)
(0 0 0)
(0 0 0)
(0 0 0)
(0 0 0)
(0 0 0)
(0 0 0)
(0 0 0)
(-0.470149 2.18306e-05 0)
(-0.490029 3.14429e-05 0)
(-0.507994 1.67768e-05 0)
(-0.433489 -4.20179e-07 0)
(-0.306462 -1.2088e-05 0)
(-0.143052 -1.90601e-05 0)
(0.0394607 -2.12439e-05 0)
(0.227652 -1.96664e-05 0)
(0.411201 -1.41888e-05 0)
(0.581292 -7.44862e-06 0)
(0.726468 -1.62446e-06 0)
(0.849487 5.00418e-06 0)
(0.951632 8.29356e-06 0)
(1.03216 1.0323e-05 0)
(1.09399 1.02496e-05 0)
(1.14031 9.31276e-06 0)
(1.17409 7.73779e-06 0)
(1.19798 6.09155e-06 0)
(1.21435 4.53547e-06 0)
(1.22513 3.15512e-06 0)
(1.23189 2.01415e-06 0)
(1.23583 1.15254e-06 0)
(1.23785 5.75504e-07 0)
(1.23868 3.30668e-07 0)
(1.23868 2.19079e-07 0)
(1.23841 2.47884e-07 0)
(1.23788 2.78642e-07 0)
(1.23726 3.30556e-07 0)
(1.23664 3.31024e-07 0)
(1.23609 2.7725e-07 0)
(1.2356 2.08798e-07 0)
(1.23523 1.08505e-07 0)
(1.23479 4.52248e-09 0)
(1.00034 -0.00114499 0)
(1.00236 -0.00344623 0)
(1.00699 -0.00558981 0)
(1.01382 -0.00742114 0)
(1.02232 -0.00885205 0)
(1.03203 -0.00985979 0)
(1.04253 -0.0104535 0)
(1.05342 -0.0106576 0)
(1.06433 -0.0105017 0)
(1.07489 -0.010012 0)
(1.08477 -0.00920667 0)
(1.0937 -0.00809035 0)
(1.10134 -0.00664771 0)
(1.10737 -0.00483304 0)
(1.11141 -0.00256553 0)
(1.11297 9.24764e-05 0)
(1.11168 0.00344169 0)
(1.1067 0.00760558 0)
(1.09717 0.0128295 0)
(1.08193 0.0194369 0)
(1.05949 0.0278567 0)
(1.02789 0.0386824 0)
(0.984512 0.0527602 0)
(0.925822 0.0713167 0)
(0.846967 0.0961665 0)
(0.741168 0.130062 0)
(0.598909 0.177222 0)
(0.407028 0.243342 0)
(0.14068 0.326764 0)
(-0.247718 0.344022 0)
(-0.456569 0.0878617 -1.2766e-16)
(0 0 0)
(0 0 0)
(0 0 0)
(0 0 0)
(0 0 0)
(0 0 0)
(0 0 0)
(0 0 0)
(0 0 0)
(0 0 0)
(0 0 0)
(-0.473467 0.0225519 2.95916e-16)
(-0.482292 0.00867074 0)
(-0.476162 -0.0417865 0)
(-0.382908 -0.100719 0)
(-0.24487 -0.148004 0)
(-0.077292 -0.176809 0)
(0.104762 -0.189074 0)
(0.289275 -0.187948 0)
(0.466265 -0.176786 0)
(0.628366 -0.159489 0)
(0.767568 -0.13663 0)
(0.883666 -0.112872 0)
(0.978446 -0.0906233 0)
(1.0529 -0.0708789 0)
(1.10972 -0.0539598 0)
(1.15194 -0.0399752 0)
(1.18246 -0.0287965 0)
(1.20385 -0.0201211 0)
(1.21834 -0.0135806 0)
(1.22774 -0.00878739 0)
(1.23352 -0.00536459 0)
(1.23677 -0.00299649 0)
(1.23833 -0.00142743 0)
(1.23884 -0.000457942 0)
(1.23871 9.92889e-05 0)
(1.23827 0.000420842 0)
(1.23766 0.000568862 0)
(1.23699 0.000609467 0)
(1.23636 0.000583019 0)
(1.2358 0.000519281 0)
(1.2353 0.000437466 0)
(1.23494 0.000357713 0)
(1.23451 0.000251584 0)
(1.00038 -0.00237825 0)
(1.00262 -0.00714307 0)
(1.00774 -0.0115557 0)
(1.01524 -0.0152924 0)
(1.02449 -0.0181884 0)
(1.03496 -0.0202107 0)
(1.04622 -0.0213868 0)
(1.05783 -0.0217761 0)
(1.06943 -0.0214428 0)
(1.08062 -0.0204427 0)
(1.09112 -0.0188175 0)
(1.10062 -0.0165779 0)
(1.10884 -0.0136969 0)
(1.11545 -0.0101049 0)
(1.12012 -0.00571122 0)
(1.12248 -0.000388489 0)
(1.12204 0.00619612 0)
(1.11813 0.0143477 0)
(1.10999 0.0245272 0)
(1.09662 0.0373394 0)
(1.07677 0.0535869 0)
(1.0488 0.074371 0)
(1.01059 0.101245 0)
(0.959345 0.136441 0)
(0.891358 0.183231 0)
(0.801664 0.246535 0)
(0.683608 0.333793 0)
(0.528648 0.45565 0)
(0.327358 0.615865 0)
(0.0150843 0.724223 0)
(-0.336347 0.414263 3.80208e-16)
(0 0 0)
(0 0 0)
(0 0 0)
(0 0 0)
(0 0 0)
(0 0 0)
(0 0 0)
(0 0 0)
(0 0 0)
(0 0 0)
(0 0 0)
(-0.429209 0.0271316 0)
(-0.440628 -0.0181991 0)
(-0.36062 -0.121395 0)
(-0.22279 -0.2296 0)
(-0.0600387 -0.308528 0)
(0.115495 -0.354577 0)
(0.293621 -0.371063 0)
(0.465554 -0.363516 0)
(0.623832 -0.337925 0)
(0.763262 -0.300188 0)
(0.881191 -0.256089 0)
(0.977275 -0.210944 0)
(1.05288 -0.168492 0)
(1.11049 -0.130819 0)
(1.15312 -0.0988168 0)
(1.18377 -0.0726257 0)
(1.20517 -0.0518701 0)
(1.21959 -0.0358774 0)
(1.22886 -0.0239157 0)
(1.23447 -0.0152244 0)
(1.23756 -0.00907234 0)
(1.23895 -0.00486974 0)
(1.23926 -0.0021105 0)
(1.23893 -0.000398273 0)
(1.2383 0.000553952 0)
(1.23754 0.00104683 0)
(1.23672 0.00125686 0)
(1.23596 0.00128147 0)
(1.23528 0.00119372 0)
(1.2347 0.0010477 0)
(1.23421 0.000873019 0)
(1.23385 0.000708984 0)
(1.23344 0.000497383 0)
(1.00045 -0.00379071 0)
(1.00309 -0.0113652 0)
(1.0091 -0.0183157 0)
(1.01782 -0.024117 0)
(1.02842 -0.0285447 0)
(1.04026 -0.0315866 0)
(1.05284 -0.0333136 0)
(1.0657 -0.0338376 0)
(1.07846 -0.0332676 0)
(1.09071 -0.0317017 0)
(1.10217 -0.0292148 0)
(1.11258 -0.025827 0)
(1.12165 -0.0215066 0)
(1.12913 -0.0161732 0)
(1.13469 -0.00972594 0)
(1.13807 -0.00187307 0)
(1.1388 0.00771322 0)
(1.13642 0.0195128 0)
(1.1303 0.0341417 0)
(1.11972 0.0524009 0)
(1.10374 0.0753602 0)
(1.08124 0.104473 0)
(1.05081 0.141753 0)
(1.01071 0.190058 0)
(0.958845 0.253507 0)
(0.892664 0.33809 0)
(0.809322 0.452738 0)
(0.705503 0.610421 0)
(0.582904 0.823966 0)
(0.409993 1.04198 0)
(0.0098993 0.773089 1.845e-16)
(-0.402668 0.111503 0)
(0 0 0)
(0 0 0)
(0 0 0)
(0 0 0)
(0 0 0)
(0 0 0)
(0 0 0)
(0 0 0)
(0 0 0)
(-0.452113 -0.0156293 0)
(-0.394531 -0.0211107 0)
(-0.292203 -0.120824 0)
(-0.113483 -0.267553 0)
(0.0754178 -0.397914 0)
(0.260336 -0.486746 0)
(0.435622 -0.532528 0)
(0.598207 -0.54066 0)
(0.744137 -0.518819 0)
(0.869524 -0.47437 0)
(0.972884 -0.415133 0)
(1.05436 -0.349093 0)
(1.11581 -0.283403 0)
(1.16055 -0.223003 0)
(1.19193 -0.170561 0)
(1.2131 -0.126937 0)
(1.22675 -0.0918935 0)
(1.23503 -0.0645908 0)
(1.23957 -0.0438351 0)
(1.24158 -0.028515 0)
(1.242 -0.0175632 0)
(1.24139 -0.00988524 0)
(1.24034 -0.00472114 0)
(1.239 -0.00142379 0)
(1.23762 0.000477657 0)
(1.23638 0.00149846 0)
(1.23519 0.00198877 0)
(1.23417 0.00212322 0)
(1.23331 0.00204152 0)
(1.23259 0.00183797 0)
(1.23202 0.00157975 0)
(1.23155 0.00129868 0)
(1.23122 0.00104453 0)
(1.23085 0.000728098 0)
(1.00056 -0.00551223 0)
(1.00387 -0.0164856 0)
(1.01136 -0.0264102 0)
(1.02202 -0.0345158 0)
(1.03473 -0.0405616 0)
(1.04866 -0.0446085 0)
(1.06321 -0.0468144 0)
(1.07791 -0.0473599 0)
(1.09224 -0.046412 0)
(1.10586 -0.0441466 0)
(1.11847 -0.0406885 0)
(1.12988 -0.036064 0)
(1.13982 -0.0302491 0)
(1.14808 -0.0231805 0)
(1.15444 -0.0147263 0)
(1.1587 -0.00456017 0)
(1.16058 0.0077287 0)
(1.15977 0.0227122 0)
(1.15589 0.0410918 0)
(1.14852 0.063753 0)
(1.13717 0.0919024 0)
(1.12129 0.127161 0)
(1.10027 0.171722 0)
(1.07351 0.228619 0)
(1.04051 0.30207 0)
(1.00118 0.398033 0)
(0.956294 0.525001 0)
(0.908519 0.695021 0)
(0.863053 0.923435 0)
(0.830601 1.20434 0)
(0.695731 1.29793 0)
(0.115425 0.661909 0)
(0 0 0)
(0 0 0)
(0 0 0)
(0 0 0)
(0 0 0)
(0 0 0)
(0 0 0)
(0 0 0)
(-0.409868 -0.0362462 3.5283e-17)
(-0.289353 -0.109989 3.72867e-16)
(-0.158096 -0.191543 0)
(0.0825613 -0.330522 0)
(0.322927 -0.480822 0)
(0.537587 -0.600557 0)
(0.718763 -0.671409 0)
(0.868941 -0.69603 0)
(0.991867 -0.681098 0)
(1.0882 -0.635386 0)
(1.16048 -0.567225 0)
(1.21126 -0.485405 0)
(1.24371 -0.399238 0)
(1.26207 -0.317342 0)
(1.27052 -0.244709 0)
(1.27236 -0.183454 0)
(1.27014 -0.133747 0)
(1.26574 -0.0946506 0)
(1.26032 -0.0647061 0)
(1.25483 -0.042421 0)
(1.24964 -0.0263702 0)
(1.24498 -0.0151349 0)
(1.24094 -0.00739828 0)
(1.23752 -0.00246374 0)
(1.2348 0.000522443 0)
(1.23254 0.00220748 0)
(1.23072 0.00298974 0)
(1.22927 0.00322647 0)
(1.22813 0.00313211 0)
(1.22725 0.00285157 0)
(1.22656 0.00247986 0)
(1.22604 0.00208249 0)
(1.22564 0.00168535 0)
(1.22537 0.00134064 0)
(1.22507 0.000927443 0)
(1.00074 -0.00774629 0)
(1.00516 -0.0230614 0)
(1.015 -0.0366003 0)
(1.02869 -0.0473169 0)
(1.04453 -0.0550587 0)
(1.06145 -0.0600362 0)
(1.07867 -0.0625241 0)
(1.0956 -0.062805 0)
(1.11169 -0.0611539 0)
(1.12657 -0.0578984 0)
(1.14003 -0.0532373 0)
(1.15194 -0.0471773 0)
(1.16208 -0.0397075 0)
(1.17039 -0.0307791 0)
(1.17676 -0.0202978 0)
(1.18117 -0.00797699 0)
(1.18361 0.00662697 0)
(1.18396 0.0241237 0)
(1.18208 0.0452905 0)
(1.17792 0.0710143 0)
(1.17145 0.102491 0)
(1.16268 0.141362 0)
(1.15173 0.189751 0)
(1.13901 0.250474 0)
(1.12534 0.327283 0)
(1.11245 0.425205 0)
(1.10358 0.550959 0)
(1.10471 0.713433 0)
(1.1255 0.923889 0)
(1.1803 1.1912 0)
(1.25808 1.45532 0)
(1.10165 1.35853 0)
(0.543475 0.735322 0)
(-0.190938 0.164215 2.61518e-18)
(0 0 0)
(0 0 0)
(0 0 0)
(0 0 0)
(0 0 0)
(-0.236898 -0.0950971 -1.39476e-16)
(-0.018803 -0.220955 -1.87941e-16)
(0.148925 -0.353341 0)
(0.444367 -0.479665 0)
(0.726643 -0.610483 0)
(0.960837 -0.721348 0)
(1.13453 -0.793978 0)
(1.255 -0.818963 0)
(1.33883 -0.804762 0)
(1.3925 -0.761868 0)
(1.42034 -0.689719 0)
(1.42662 -0.598914 0)
(1.41732 -0.499486 0)
(1.39815 -0.400299 0)
(1.3744 -0.310372 0)
(1.34925 -0.232975 0)