/*--------------------------------*- C++ -*----------------------------------*\
| =========                 |                                                 |
| \\      /  F ield         | OpenFOAM: The Open Source CFD Toolbox           |
|  \\    /   O peration     | Version:  2206                                  |
|   \\  /    A nd           | Website:  www.openfoam.com                      |
|    \\/     M anipulation  |                                                 |
\*---------------------------------------------------------------------------*/
FoamFile
{
    version     2.0;
    format      ascii;
    arch        "LSB;label=32;scalar=64";
    class       surfaceVectorField;
    location    "0.8";
    object      Uf;
}
// * * * * * * * * * * * * * * * * * * * * * * * * * * * * * * * * * * * * * //

dimensions      [0 1 -1 0 0 0 0];

internalField   nonuniform List<vector> 
3650
(
(0.859767 0.0532955 0)
(0.90322 0.140233 0)
(0.701332 0.0846677 0)
(0.900314 0.158435 0)
(0.56729 0.0660873 0)
(0.843235 0.134042 0)
(0.463876 0.0366224 0)
(0.752291 0.103415 0)
(0.387939 0.018936 0)
(0.672207 0.0759371 0)
(0.33414 0.0102503 0)
(0.606902 0.0537982 0)
(0.296353 0.00548862 0)
(0.554623 0.0377873 0)
(0.26986 0.00282506 0)
(0.512486 0.0264936 0)
(0.251063 0.00137948 0)
(0.479237 0.018797 0)
(0.237547 0.00057305 0)
(0.453311 0.0135166 0)
(0.22785 7.55516e-05 0)
(0.433244 0.00969649 0)
(0.221092 -0.0002911 0)
(0.417958 0.00675877 0)
(0.216792 -0.000631631 0)
(0.406693 0.00429977 0)
(0.214752 -0.000995525 0)
(0.399011 0.00204054 0)
(0.214932 -0.00143604 0)
(0.3948 -0.000180343 0)
(0.217309 -0.00198583 0)
(0.393965 -0.00237634 0)
(0.222077 -0.002652 0)
(0.396428 -0.00476828 0)
(0.229632 -0.00346812 0)
(0.402616 -0.00755432 0)
(0.24045 -0.00448381 0)
(0.412995 -0.0108179 0)
(0.255148 -0.00575779 0)
(0.428145 -0.0146983 0)
(0.27452 -0.00735053 0)
(0.448866 -0.0193722 0)
(0.299555 -0.00932704 0)
(0.476184 -0.0250353 0)
(0.331452 -0.0117535 0)
(0.511356 -0.0318964 0)
(0.371612 -0.0146842 0)
(0.555876 -0.04016 0)
(0.421598 -0.0181397 0)
(0.611454 -0.0499854 0)
(0.483023 -0.0220718 0)
(0.679936 -0.061426 0)
(0.557357 -0.026314 0)
(0.763155 -0.0743333 0)
(0.645589 -0.030516 0)
(0.862674 -0.0882311 0)
(0.747748 -0.0340671 0)
(0.979392 -0.102159 0)
(0.86224 -0.0360483 0)
(1.11297 -0.114492 0)
(0.985119 -0.0352242 0)
(1.26107 -0.122878 0)
(1.10938 -0.0300845 0)
(1.41852 -0.124266 0)
(1.2244 -0.0194326 0)
(1.57686 -0.115013 0)
(1.31663 -0.00403392 0)
(1.72429 -0.0922302 0)
(1.37259 0.0149191 0)
(1.84533 -0.0559654 0)
(1.38166 0.0339484 0)
(1.92268 -0.0090718 0)
(1.34126 0.0503007 0)
(1.94687 0.0404058 0)
(1.2563 0.0626243 0)
(1.91551 0.0849565 0)
(1.13422 0.0674233 0)
(1.83169 0.122085 0)
(0.98906 0.0638729 0)
(1.70371 0.145157 0)
(0.836052 0.0542675 0)
(1.54495 0.15301 0)
(0.688507 0.0420421 0)
(1.36791 0.147545 0)
(0.556347 0.028013 0)
(1.1895 0.132161 0)
(0.445277 0.0152593 0)
(1.01199 0.111071 0)
(0.355731 0.00793965 0)
(0.848499 0.0895463 0)
(0.285016 0.00457701 0)
(0.705954 0.070716 0)
(0.230848 0.00336232 0)
(0.587008 0.0541698 0)
(0.190544 0.00271504 0)
(0.491859 0.0403047 0)
(0.161958 0.0012533 0)
(0.420319 0.0285872 0)
(0.143029 -2.06492e-05 0)
(0.366855 0.0189296 0)
(0.131607 -0.000641548 0)
(0.329861 0.0114233 0)
(0.126124 -0.00112336 0)
(0.305906 0.00548357 0)
(0.124971 -0.0013598 0)
(0.291527 0.00115367 0)
(0.126588 -0.00143175 0)
(0.284372 -0.00161611 0)
(0.130081 -0.00146934 0)
(0.282544 -0.0034924 0)
(0.134732 -0.00142698 0)
(0.284201 -0.00465063 0)
(0.139967 -0.00138024 0)
(0.287997 -0.00523468 0)
(0.14525 -0.00140331 0)
(0.293048 -0.00528292 0)
(0.150339 -0.00143428 0)
(0.298498 -0.00508794 0)
(0.155018 -0.00137785 0)
(0.303917 -0.00467912 0)
(0.159168 -0.00120264 0)
(0.309039 -0.00414903 0)
(0.162743 -0.000988629 0)
(0.313667 -0.00357493 0)
(0.165764 -0.000805995 0)
(0.317711 -0.00302079 0)
(0.168272 -0.000656399 0)
(0.321134 -0.00250775 0)
(0.170326 -0.00052448 0)
(0.324019 -0.0020542 0)
(0.171987 -0.000414175 0)
(0.326394 -0.0016607 0)
(0.173314 -0.000323907 0)
(0.328324 -0.00132708 0)
(0.174364 -0.000251069 0)
(0.329872 -0.00104979 0)
(0.175187 -0.000192818 0)
(0.331101 -0.000822242 0)
(0.175824 -0.000146576 0)
(0.332067 -0.000637833 0)
(0.176314 -0.000110049 0)
(0.332817 -0.000489362 0)
(0.176685 -8.11819e-05 0)
(0.333393 -0.000370715 0)
(0.176961 -5.76204e-05 0)
(0.333829 -0.000275873 0)
(0.17716 -4.4498e-05 0)
(0.334151 -0.000198961 0)
(0.334424 -0.000144252 0)
(1.05176 0.154915 0)
(1.0133 0.0884751 0)
(1.04752 0.183181 0)
(1.05556 0.162677 0)
(1.01069 0.16825 0)
(1.0677 0.17087 0)
(0.955504 0.143342 0)
(1.04943 0.158598 0)
(0.8911 0.113242 0)
(1.01421 0.140341 0)
(0.82695 0.0844988 0)
(0.971684 0.117949 0)
(0.76962 0.0617138 0)
(0.928282 0.0951173 0)
(0.721098 0.0449753 0)
(0.885775 0.0750158 0)
(0.681072 0.0329114 0)
(0.846715 0.0588225 0)
(0.648731 0.0240571 0)
(0.812663 0.0458581 0)
(0.623156 0.0173137 0)
(0.783912 0.0352719 0)
(0.603394 0.0118861 0)
(0.760269 0.0265202 0)
(0.588759 0.00716698 0)
(0.741383 0.0189355 0)
(0.57887 0.0027565 0)
(0.727073 0.0119298 0)
(0.573559 -0.00150264 0)
(0.717313 0.00513045 0)
(0.572784 -0.00585344 0)
(0.712184 -0.00160077 0)
(0.576618 -0.0106894 0)
(0.711624 -0.00860263 0)
(0.585542 -0.0162495 0)
(0.716037 -0.0164776 0)
(0.600119 -0.0227259 0)
(0.725947 -0.025395 0)
(0.621136 -0.030389 0)
(0.741987 -0.0357159 0)
(0.649623 -0.0395522 0)
(0.765024 -0.0478586 0)
(0.686864 -0.0505485 0)
(0.796185 -0.062276 0)
(0.734412 -0.0637104 0)
(0.836849 -0.079445 0)
(0.794082 -0.0793226 0)
(0.888666 -0.0998301 0)
(0.867893 -0.0975405 0)
(0.953565 -0.123796 0)
(0.957959 -0.118271 0)
(1.03369 -0.151492 0)
(1.06629 -0.141004 0)
(1.13131 -0.182663 0)
(1.19447 -0.164602 0)
(1.24859 -0.216411 0)
(1.34319 -0.187041 0)
(1.38731 -0.250881 0)
(1.51152 -0.205221 0)
(1.54826 -0.282823 0)
(1.69608 -0.214925 0)
(1.73047 -0.307439 0)
(1.89018 -0.211034 0)
(1.93031 -0.318366 0)
(2.0829 -0.188491 0)
(2.13991 -0.307731 0)
(2.25945 -0.144047 0)
(2.34666 -0.268787 0)
(2.40258 -0.078663 0)
(2.53204 -0.199093 0)
(2.49419 0.000525061 0)
(2.67552 -0.100681 0)
(2.52408 0.0794687 0)
(2.75876 0.0105166 0)
(2.49033 0.150342 0)
(2.77751 0.118706 0)
(2.39844 0.208182 0)
(2.73406 0.213972 0)
(2.25604 0.245312 0)
(2.63465 0.287563 0)
(2.07414 0.260422 0)
(2.49038 0.334912 0)
(1.8646 0.255736 0)
(2.31153 0.357087 0)
(1.63978 0.235385 0)
(2.1078 0.356978 0)
(1.41259 0.204358 0)
(1.88835 0.338263 0)
(1.19748 0.168159 0)
(1.66297 0.304654 0)
(1.00717 0.131864 0)
(1.44586 0.261028 0)
(0.848054 0.0991686 0)
(1.24658 0.213286 0)
(0.721232 0.0716655 0)
(1.07366 0.167128 0)
(0.624358 0.0493053 0)
(0.930795 0.125462 0)
(0.55339 0.0316736 0)
(0.818114 0.0898986 0)
(0.503865 0.0181039 0)
(0.733453 0.0609493 0)
(0.471034 0.00799661 0)
(0.672554 0.0383154 0)
(0.45088 0.000943236 0)
(0.630521 0.021308 0)
(0.440319 -0.00376435 0)
(0.60342 0.00894501 0)
(0.436688 -0.00680341 0)
(0.587689 0.0001395 0)
(0.437536 -0.00857719 0)
(0.579851 -0.00549829 0)
(0.441207 -0.00926627 0)
(0.577299 -0.00890518 0)
(0.446406 -0.00914594 0)
(0.578452 -0.0104815 0)
(0.452226 -0.00857576 0)
(0.581607 -0.0109076 0)
(0.45809 -0.00772124 0)
(0.585822 -0.010543 0)
(0.463663 -0.00676207 0)
(0.590419 -0.00972241 0)
(0.468727 -0.0057962 0)
(0.594946 -0.00863777 0)
(0.473169 -0.00487725 0)
(0.599183 -0.00746348 0)
(0.476974 -0.00403786 0)
(0.602983 -0.00631241 0)
(0.480165 -0.00329477 0)
(0.60628 -0.00524485 0)
(0.482795 -0.00265471 0)
(0.60907 -0.00429063 0)
(0.484934 -0.00211549 0)
(0.611387 -0.00346548 0)
(0.486651 -0.00166869 0)
(0.613283 -0.00276693 0)
(0.488015 -0.00130328 0)
(0.614812 -0.00218563 0)
(0.489085 -0.00100737 0)
(0.61603 -0.00170838 0)
(0.489916 -0.000769349 0)
(0.616988 -0.00132038 0)
(0.490553 -0.00057856 0)
(0.617733 -0.00100706 0)
(0.491031 -0.00042532 0)
(0.618305 -0.000754075 0)
(0.491384 -0.000301052 0)
(0.618725 -0.000551818 0)
(0.6191 -0.000371855 0)
(1.03953 0.111052 0)
(1.00909 0.0489447 0)
(1.08214 0.157368 0)
(1.04744 0.120072 0)
(1.10325 0.165051 0)
(1.0878 0.149755 0)
(1.10598 0.159197 0)
(1.11094 0.155869 0)
(1.09478 0.147367 0)
(1.11753 0.151546 0)
(1.07288 0.129906 0)
(1.11533 0.139843 0)
(1.0438 0.109352 0)
(1.10325 0.124202 0)
(1.01092 0.0893458 0)
(1.08506 0.107897 0)
(0.97797 0.0718531 0)
(1.06343 0.0917684 0)
(0.947588 0.0570493 0)
(1.04102 0.0762404 0)
(0.92086 0.0445019 0)
(1.01925 0.0619999 0)
(0.898108 0.0335881 0)
(0.999252 0.049273 0)
(0.879539 0.023643 0)
(0.981661 0.0375046 0)
(0.865354 0.0141592 0)
(0.967051 0.0261149 0)
(0.855696 0.0048229 0)
(0.95591 0.014788 0)
(0.850748 -0.00463014 0)
(0.948565 0.00334717 0)
(0.85074 -0.0147669 0)
(0.945235 -0.00859442 0)
(0.856068 -0.0261088 0)
(0.94636 -0.0218053 0)
(0.867317 -0.038987 0)
(0.952517 -0.0366434 0)
(0.885233 -0.0538995 0)
(0.964338 -0.053632 0)
(0.910784 -0.0714141 0)
(0.982645 -0.0734092 0)
(0.945174 -0.0921323 0)
(1.00852 -0.0966661 0)
(0.989873 -0.116664 0)
(1.04323 -0.124144 0)
(1.04666 -0.145558 0)
(1.08837 -0.156618 0)
(1.11761 -0.179177 0)
(1.14593 -0.194746 1.15302e-33)
(1.20506 -0.217514 0)
(1.21828 -0.238938 -1.12303e-33)
(1.31149 -0.259914 0)
(1.30816 -0.289101 0)
(1.43939 -0.304735 0)
(1.41867 -0.344309 0)
(1.59082 -0.348851 0)
(1.55306 -0.402305 0)
(1.76662 -0.387262 0)
(1.71418 -0.458631 0)
(1.96589 -0.412912 0)
(1.90401 -0.506706 0)
(2.18402 -0.416412 0)
(2.12312 -0.536492 0)
(2.40981 -0.388102 0)
(2.36428 -0.533523 0)
(2.62637 -0.321856 0)
(2.60962 -0.485349 0)
(2.81295 -0.218044 0)
(2.82765 -0.385666 0)
(2.94515 -0.0879094 0)
(2.99871 -0.232888 0)
(3.01461 0.0518252 0)
(3.10136 -0.0589442 0)
(3.01943 0.182414 0)
(3.13885 0.113887 0)
(2.96596 0.291659 0)
(3.1102 0.267448 0)
(2.86495 0.375119 0)
(3.03009 0.388573 0)
(2.72495 0.429531 0)
(2.91339 0.474907 0)
(2.55254 0.456089 0)
(2.76881 0.529506 0)
(2.35413 0.457388 0)
(2.60149 0.555388 0)
(2.1372 0.436532 0)
(2.41535 0.555189 0)
(1.91062 0.396964 0)
(2.21451 0.531234 0)
(1.68506 0.343373 0)
(2.00543 0.486589 0)
(1.47224 0.282495 0)
(1.79594 0.426104 0)
(1.28306 0.221471 0)
(1.59585 0.356312 0)
(1.1244 0.165683 0)
(1.41374 0.284127 0)
(0.99802 0.118124 0)
(1.25776 0.216275 0)
(0.901887 0.0796948 0)
(1.13083 0.157083 0)
(0.831809 0.0499484 0)
(1.03208 0.108393 0)
(0.782997 0.0276932 0)
(0.958393 0.07012 0)
(0.750779 0.0116023 0)
(0.905748 0.0411637 0)
(0.730791 0.000496323 0)
(0.869722 0.0201281 0)
(0.719683 -0.00666513 0)
(0.846175 0.00560978 0)
(0.714663 -0.0107922 0)
(0.831736 -0.00388514 0)
(0.713736 -0.0127176 0)
(0.823876 -0.00955369 0)
(0.71534 -0.0131648 0)
(0.820416 -0.0125114 0)
(0.7183 -0.012713 0)
(0.81972 -0.0135034 0)
(0.721804 -0.0116998 0)
(0.820727 -0.0132259 0)
(0.725509 -0.01036 0)
(0.822714 -0.0123424 0)
(0.729094 -0.00892663 0)
(0.825079 -0.0110479 0)
(0.732372 -0.00753226 0)
(0.827576 -0.00959035 0)
(0.735255 -0.0062452 0)
(0.829978 -0.00812756 0)
(0.737719 -0.00510149 0)
(0.832163 -0.00675459 0)
(0.739783 -0.00411399 0)
(0.834067 -0.00552946 0)
(0.741481 -0.00327911 0)
(0.835687 -0.00446476 0)
(0.742857 -0.0025852 0)
(0.837034 -0.00356138 0)
(0.743956 -0.00201576 0)
(0.838136 -0.00280804 0)
(0.744824 -0.00155273 0)
(0.839022 -0.0021876 0)
(0.745498 -0.00117769 0)
(0.839723 -0.00168164 0)
(0.746013 -0.00087661 0)
(0.840275 -0.00126835 0)
(0.746404 -0.000619452 0)
(0.84068 -0.000942908 0)
(0.841067 -0.000626149 0)
(1.01974 0.0663357 0)
(1.00421 0.0292028 0)
(1.05955 0.112966 0)
(1.02717 0.080263 0)
(1.096 0.138145 0)
(1.06428 0.113303 0)
(1.1218 0.14615 0)
(1.09794 0.130067 0)
(1.1381 0.143251 0)
(1.12202 0.135253 0)
(1.14549 0.134336 0)
(1.13999 0.132453 0)
(1.14453 0.12303 0)
(1.14919 0.125163 0)
(1.13725 0.110525 0)
(1.15236 0.115179 0)
(1.12609 0.096535 0)
(1.15149 0.102923 0)
(1.11255 0.0815713 0)
(1.14634 0.0897797 0)
(1.09756 0.0669511 0)
(1.13872 0.0769946 0)
(1.08267 0.0531986 0)
(1.12988 0.0641648 0)
(1.06901 0.0399401 0)
(1.12069 0.0511613 0)
(1.05746 0.0267928 0)
(1.11206 0.03766 0)
(1.0486 0.013506 0)
(1.10472 0.0236514 0)
(1.04281 -0.00029767 0)
(1.09918 0.009136 0)
(1.04061 -0.0152207 0)
(1.09582 -0.00639431 0)
(1.04251 -0.031847 0)
(1.09528 -0.0237022 0)
(1.04913 -0.0507099 0)
(1.0982 -0.0432638 0)
(1.0612 -0.0724654 0)
(1.10523 -0.0657045 0)
(1.07968 -0.0978798 0)
(1.11706 -0.0918826 0)
(1.10568 -0.127797 0)
(1.13477 -0.12267 0)
(1.14057 -0.163124 0)
(1.15952 -0.159033 0)
(1.18619 -0.204767 1.15302e-33)
(1.19297 -0.202236 0)
(1.24481 -0.253487 3.1747e-35)
(1.23722 -0.253363 1.15302e-33)
(1.31923 -0.309652 -1.12303e-33)
(1.29498 -0.313366 -1.12303e-33)
(1.41289 -0.37293 0)
(1.36976 -0.382761 0)
(1.52976 -0.441804 0)
(1.46597 -0.461179 0)
(1.67419 -0.512608 0)
(1.58917 -0.546732 0)
(1.85016 -0.579112 0)
(1.74516 -0.634598 0)
(2.0618 -0.630984 0)
(1.94195 -0.718345 0)
(2.30794 -0.651953 0)
(2.1865 -0.782631 0)
(2.57117 -0.624895 0)
(2.46105 -0.796753 0)
(2.82104 -0.538656 0)
(2.72782 -0.735219 0)
(3.02326 -0.38824 0)
(2.9417 -0.58789 0)
(3.16068 -0.195672 0)
(3.10566 -0.370303 0)
(3.22707 0.00647299 0)
(3.17286 -0.125335 0)
(3.22582 0.200369 0)
(3.18114 0.115132 0)
(3.16754 0.364122 0)
(3.13207 0.325734 0)
(3.07319 0.486621 0)
(3.04812 0.482916 0)
(2.95423 0.572786 0)
(2.9466 0.593874 0)
(2.81592 0.627379 0)
(2.83137 0.667818 0)
(2.66101 0.652875 0)
(2.70704 0.710296 0)
(2.49141 0.650433 0)
(2.57406 0.724793 0)
(2.30843 0.621994 0)
(2.42371 0.714212 0)
(2.11635 0.570952 0)
(2.26072 0.678667 0)
(1.91989 0.50195 0)
(2.08851 0.622569 0)
(1.72678 0.420893 0)
(1.91306 0.549425 0)
(1.54737 0.336088 0)
(1.74133 0.463534 0)
(1.39075 0.256031 0)
(1.58175 0.372896 0)
(1.26103 0.18616 0)
(1.44154 0.286796 0)
(1.15859 0.128674 0)
(1.32391 0.210835 0)
(1.0811 0.0835477 0)
(1.22946 0.14761 0)
(1.02468 0.0495872 0)
(1.15667 0.0975896 0)
(0.985041 0.0251051 0)
(1.10248 0.0597651 0)
(0.958284 0.00825177 0)
(1.06337 0.0323672 0)
(0.941033 -0.00272982 0)
(1.03604 0.0133666 0)
(0.930607 -0.00937632 0)
(1.01761 0.000872449 0)
(0.92489 -0.0128334 0)
(1.00569 -0.00679483 0)
(0.922293 -0.0139848 0)
(0.998323 -0.0109065 0)
(0.921715 -0.0138443 0)
(0.994238 -0.0126475 0)
(0.922364 -0.0130027 0)
(0.992372 -0.0129907 0)
(0.923636 -0.0116722 0)
(0.991738 -0.01232 0)
(0.925253 -0.0101438 0)
(0.991999 -0.011207 0)
(0.926944 -0.00860141 0)
(0.9927 -0.00981871 0)
(0.928556 -0.00715205 0)
(0.993635 -0.00836653 0)
(0.930009 -0.00585469 0)
(0.994629 -0.0069821 0)
(0.93127 -0.00472633 0)
(0.995589 -0.00572598 0)
(0.932337 -0.00376742 0)
(0.996457 -0.00462826 0)
(0.93322 -0.00296638 0)
(0.997212 -0.00369104 0)
(0.933937 -0.00230598 0)
(0.99785 -0.00290456 0)
(0.93451 -0.00176436 0)
(0.998374 -0.00225423 0)
(0.934957 -0.00132931 0)
(0.998801 -0.00171491 0)
(0.935307 -0.000946867 0)
(0.999121 -0.00129348 0)
(0.999443 -0.000860986 0)
(1.01045 0.0438553 0)
(1.00232 0.0187509 0)
(1.0362 0.0797512 0)
(1.01547 0.0545176 0)
(1.06761 0.104399 0)
(1.04084 0.0818913 0)
(1.09799 0.118442 0)
(1.07021 0.0996838 0)
(1.12381 0.123698 0)
(1.09747 0.109438 0)
(1.14355 0.122624 0)
(1.12107 0.112712 0)
(1.15736 0.117155 0)
(1.14014 0.111351 0)
(1.16634 0.10796 0)
(1.15465 0.106202 0)
(1.17132 0.0967775 0)
(1.16589 0.0979361 0)
(1.1726 0.0857896 0)
(1.1726 0.0884998 0)
(1.17105 0.0747523 0)
(1.17647 0.0785522 0)
(1.16772 0.0628163 0)
(1.17824 0.0674906 0)
(1.16355 0.0497425 0)
(1.17856 0.0553358 0)
(1.15924 0.0353891 0)
(1.17764 0.0419713 0)
(1.15522 0.0200341 0)
(1.17607 0.0276706 0)
(1.152 0.00367584 0)
(1.17445 0.0123483 0)
(1.15027 -0.0142366 0)
(1.17318 -0.00465822 0)
(1.15072 -0.034385 0)
(1.17277 -0.0241511 0)
(1.15397 -0.0574514 0)
(1.17384 -0.0465168 0)
(1.16063 -0.0842702 0)
(1.17698 -0.0723602 0)
(1.1715 -0.115745 0)
(1.18276 -0.102755 0)
(1.18774 -0.152857 0)
(1.1921 -0.138911 0)
(1.21078 -0.197048 0)
(1.20635 -0.182073 0)
(1.24248 -0.249835 0)
(1.22701 -0.233934 0)
(1.28539 -0.312505 0)
(1.2562 -0.296275 0)
(1.34295 -0.386206 0)
(1.29689 -0.370922 0)
(1.41974 -0.471472 0)
(1.35326 -0.459553 0)
(1.5218 -0.567551 0)
(1.43114 -0.563238 0)
(1.6567 -0.671253 0)
(1.53881 -0.681634 0)
(1.83355 -0.77711 0)
(1.68597 -0.811448 0)
(2.06564 -0.872135 0)
(1.89125 -0.950432 0)
(2.34598 -0.929605 0)
(2.15492 -1.06298 0)
(2.62705 -0.916678 0)
(2.41712 -1.07782 0)
(2.86817 -0.805147 0)
(2.63977 -0.976337 0)
(3.03589 -0.591318 0)
(2.75675 -0.755618 0)
(3.12088 -0.313923 0)
(2.77782 -0.455286 0)
(3.12825 -0.0297016 0)
(2.72577 -0.132709 0)
(3.0807 0.224259 0)
(2.66495 0.162678 0)
(3.00141 0.427012 0)
(2.61673 0.40503 0)
(2.91479 0.573792 0)
(2.57384 0.569536 0)
(2.82025 0.675411 0)
(2.53797 0.688414 0)
(2.72174 0.739833 0)
(2.49958 0.76633 0)
(2.61824 0.774333 0)
(2.45499 0.813791 0)
(2.50517 0.78397 0)
(2.39952 0.837863 0)
(2.37508 0.768071 0)
(2.32249 0.844302 0)
(2.23329 0.728417 0)
(2.22702 0.820457 0)
(2.08185 0.669442 0)
(2.11282 0.77401 0)
(1.92774 0.592945 0)
(1.99064 0.703539 0)
(1.77627 0.502211 0)
(1.86055 0.615 0)
(1.63329 0.405733 0)
(1.73035 0.515878 0)
(1.50486 0.313157 0)
(1.60757 0.415233 0)
(1.39496 0.230992 0)
(1.49803 0.320731 0)
(1.30514 0.162513 0)
(1.40438 0.237432 0)
(1.23453 0.108372 0)
(1.32739 0.168202 0)
(1.18081 0.0674617 0)
(1.26606 0.113478 0)
(1.14115 0.037804 0)
(1.21856 0.0720285 0)
(1.11266 0.0172036 0)
(1.18271 0.0418605 0)
(1.09273 0.00360389 0)
(1.15634 0.020797 0)
(1.07919 -0.00480424 0)
(1.13738 0.00674688 0)
(1.07036 -0.00952942 0)
(1.12409 -0.00207333 0)
(1.06496 -0.0117448 0)
(1.1151 -0.00725119 0)
(1.0618 -0.0122785 0)
(1.10922 -0.00983182 0)
(1.06016 -0.0118444 0)
(1.10548 -0.0106715 0)
(1.0595 -0.0108728 0)
(1.10327 -0.0105465 0)
(1.05944 -0.00957144 0)
(1.10205 -0.00975882 0)
(1.05974 -0.00818905 0)
(1.10149 -0.00867372 0)
(1.06024 -0.00685108 0)
(1.10134 -0.00747807 0)
(1.0608 -0.00562837 0)
(1.10144 -0.00628631 0)
(1.06135 -0.00455375 0)
(1.10166 -0.0051799 0)
(1.06186 -0.0036317 0)
(1.10194 -0.00419658 0)
(1.0623 -0.0028555 0)
(1.10223 -0.00334661 0)
(1.06267 -0.00220751 0)
(1.10249 -0.00262828 0)
(1.06298 -0.00168173 0)
(1.10273 -0.00202054 0)
(1.06323 -0.00120975 0)
(1.10291 -0.00154185 0)
(1.10311 -0.00103291 0)
(1.00595 0.0302656 0)
(1.00138 0.0127997 0)
(1.02225 0.0568526 0)
(1.00943 0.0382176 0)
(1.0448 0.0770487 0)
(1.02634 0.059341 0)
(1.06985 0.0905883 0)
(1.04812 0.0746389 0)
(1.09475 0.0983391 0)
(1.07116 0.0845378 0)
(1.11763 0.101289 0)
(1.09361 0.0898334 0)
(1.13761 0.100262 0)
(1.11451 0.0913647 0)
(1.15415 0.0959631 0)
(1.13315 0.0896588 0)
(1.16692 0.0893218 0)
(1.14908 0.0851745 0)
(1.17651 0.0811546 0)
(1.16194 0.0789046 0)
(1.18371 0.0715535 0)
(1.17236 0.0713583 0)
(1.18893 0.0604079 0)
(1.1807 0.0622674 0)
(1.19247 0.0479949 0)
(1.18723 0.0517998 0)
(1.19445 0.034716 0)
(1.19193 0.0399876 0)
(1.1953 0.0204893 0)
(1.19486 0.0268196 0)
(1.19551 0.00454894 0)
(1.19667 0.0121409 0)
(1.1955 -0.0139122 0)
(1.19765 -0.00464551 0)
(1.19572 -0.0354102 0)
(1.19788 -0.0243724 0)
(1.1966 -0.0603577 0)
(1.19786 -0.047398 0)
(1.1987 -0.0895545 0)
(1.19798 -0.0744654 0)
(1.20278 -0.124477 0)
(1.1987 -0.106835 0)
(1.20992 -0.166679 0)
(1.20067 -0.146045 0)
(1.22146 -0.217585 0)
(1.20489 -0.19362 0)
(1.23912 -0.279106 0)
(1.21259 -0.251586 0)
(1.26542 -0.353619 0)
(1.22569 -0.322579 0)
(1.3041 -0.443567 0)
(1.24708 -0.409597 0)
(1.3606 -0.551272 0)
(1.28119 -0.516056 0)
(1.44292 -0.678327 0)
(1.3348 -0.645561 0)
(1.56247 -0.824383 0)
(1.41844 -0.801181 0)
(1.73519 -0.989002 0)
(1.54611 -0.984165 0)
(1.98051 -1.15194 0)
(1.74163 -1.19576 0)
(2.23807 -1.23996 0)
(1.96717 -1.32053 0)
(2.43813 -1.19723 0)
(2.06972 -1.27789 0)
(2.55889 -1.02395 0)
(2.00315 -1.09709 -2.52855e-19)
(2.52655 -0.727958 0)
(1.77189 -0.723276 5.36151e-19)
(2.37924 -0.358582 0)
(1.45605 -0.307981 7.53375e-17)
(2.25552 0.00650857 0)
(1.2003 -0.00899039 -2.79648e-32)
(2.19349 0.312889 0)
(1.24898 0.224707 0)
(2.16701 0.52476 0)
(1.36793 0.431509 2.20557e-18)
(2.1896 0.663224 0)
(1.41462 0.546944 0)
(2.21366 0.760445 0)
(1.55587 0.664354 0)
(2.23338 0.824043 0)
(1.68575 0.746617 0)
(2.23554 0.864435 0)
(1.8044 0.811632 0)
(2.21562 0.888097 0)
(1.88583 0.85778 0)
(2.17266 0.890171 0)
(1.92841 0.887262 0)
(2.10729 0.862171 0)
(1.93423 0.885826 0)
(2.02199 0.805272 0)
(1.90624 0.859309 0)
(1.92287 0.724284 0)
(1.8591 0.802665 0)
(1.81535 0.629077 0)
(1.79104 0.722516 0)
(1.70587 0.526621 0)
(1.71123 0.625358 0)
(1.60165 0.424399 0)
(1.62705 0.519454 0)
(1.50798 0.328854 0)
(1.54526 0.414398 0)
(1.42702 0.244699 0)
(1.47059 0.318398 0)
(1.35917 0.174615 0)
(1.40545 0.23605 0)
(1.3039 0.119029 0)
(1.35048 0.168744 0)
(1.26015 0.0768004 0)
(1.30538 0.115778 0)
(1.22642 0.0459673 0)
(1.2693 0.0755943 0)
(1.20102 0.0243168 0)
(1.24107 0.0461962 0)
(1.18231 0.00972876 0)
(1.21945 0.0254598 0)
(1.16886 0.000377836 0)
(1.20325 0.0113748 0)
(1.1594 -0.00519464 0)
(1.19137 0.00221041 0)
(1.15292 -0.00812442 0)
(1.18285 -0.00335365 0)
(1.14864 -0.00931152 0)
(1.17687 -0.00638637 0)
(1.14585 -0.00940618 0)
(1.17277 -0.00776327 0)
(1.14413 -0.00884933 0)
(1.17001 -0.00803453 0)
(1.14311 -0.00795081 0)
(1.1682 -0.00765637 0)
(1.14256 -0.00690163 0)
(1.16703 -0.00692936 0)
(1.14232 -0.00583022 0)
(1.16631 -0.00604535 0)
(1.14227 -0.00481968 0)
(1.1659 -0.00512798 0)
(1.14232 -0.00391141 0)
(1.16569 -0.00425023 0)
(1.14243 -0.00312079 0)
(1.16559 -0.00345104 0)
(1.14255 -0.00244324 0)
(1.16557 -0.0027508 0)
(1.14267 -0.00188208 0)
(1.16559 -0.00214074 0)
(1.14278 -0.00136596 0)
(1.16562 -0.00164953 0)
(1.16567 -0.00111318 0)
(1.00373 0.0214415 0)
(1.00091 0.00907443 0)
(1.01458 0.0410429 0)
(1.00627 0.0273607 0)
(1.03064 0.0568977 0)
(1.01803 0.0432803 0)
(1.04973 0.0684177 0)
(1.03405 0.0555539 0)
(1.07012 0.0758646 0)
(1.05213 0.0641435 0)
(1.09054 0.0797665 0)
(1.07093 0.0694119 0)
(1.11013 0.0806275 0)
(1.08963 0.0717828 0)
(1.12815 0.0788536 0)
(1.10758 0.0716319 0)
(1.14403 0.0749217 0)
(1.12418 0.0692967 0)
(1.15772 0.069283 0)
(1.139 0.06522 0)
(1.1694 0.0621498 0)
(1.15205 0.0596735 0)
(1.17901 0.053616 0)
(1.16333 0.0526569 0)
(1.18661 0.0436453 0)
(1.17265 0.0441979 0)
(1.1923 0.0320594 0)
(1.1802 0.0343029 0)
(1.19624 0.018738 0)
(1.18571 0.0228792 0)
(1.19873 0.00340538 0)
(1.18949 0.00964433 0)
(1.19996 -0.0145153 0)
(1.19166 -0.00587023 0)
(1.19996 -0.035655 0)
(1.19207 -0.0243709 0)
(1.19906 -0.0607239 0)
(1.19089 -0.0464969 0)
(1.19764 -0.0908237 0)
(1.18823 -0.0730527 0)
(1.19615 -0.127291 0)
(1.18423 -0.105338 0)
(1.19498 -0.171619 0)
(1.17915 -0.144879 0)
(1.19495 -0.225951 0)
(1.17332 -0.193592 0)
(1.19751 -0.293103 0)
(1.1675 -0.254146 0)
(1.20485 -0.376427 0)
(1.16299 -0.329919 2.04885e-32)
(1.2205 -0.480004 0)
(1.16203 -0.425245 -2.01104e-32)
(1.25012 -0.608705 0)
(1.16845 -0.545677 0)
(1.30275 -0.767884 0)
(1.18876 -0.698192 0)
(1.39254 -0.962919 0)
(1.23353 -0.890963 0)
(1.53961 -1.19911 0)
(1.31793 -1.13124 0)
(1.73789 -1.38594 0)
(1.44774 -1.39403 0)
(1.8223 -1.39804 0)
(1.46148 -1.40494 0)
(1.64337 -1.16042 -2.52855e-19)
(1.16805 -1.09896 0)
(1.24406 -0.70448 2.83296e-19)
(0.645737 -0.491028 -8.91877e-19)
(0.770754 -0.249068 7.58737e-17)
(0.492159 -0.154983 5.36151e-19)
(0.28693 -0.0253263 7.53375e-17)
(0.230606 -0.48824 7.53375e-17)
(0.20926 0.031252 -2.79648e-32)
(0.0432763 -0.652362 -2.79648e-32)
(0.423834 0.133036 2.20557e-18)
(0.142666 -0.787899 0)
(0.525247 0.303174 2.20557e-18)
(0.277279 -0.946248 2.20557e-18)
(0.763618 0.486583 0)
(0.204907 0.220558 0)
(1.02224 0.628651 0)
(0.444591 0.405732 0)
(1.26139 0.721362 0)
(0.646851 0.507468 0)
(1.45735 0.795672 0)
(0.907089 0.615667 0)
(1.59746 0.849801 0)
(1.13334 0.717674 0)
(1.68745 0.877387 0)
(1.30828 0.797277 0)
(1.73266 0.879235 0)
(1.42798 0.840611 0)
(1.74395 0.854613 0)
(1.50027 0.848022 0)
(1.72688 0.798627 0)
(1.54028 0.819732 0)
(1.68753 0.716352 0)
(1.55208 0.761864 0)
(1.63359 0.61693 0)
(1.54162 0.679301 0)
(1.57189 0.509646 0)
(1.51494 0.581159 0)
(1.50889 0.404982 0)
(1.47824 0.477396 0)
(1.44984 0.310975 0)
(1.43774 0.37744 0)
(1.39724 0.231312 0)
(1.39786 0.288656 0)
(1.35219 0.166501 0)
(1.36092 0.213792 0)
(1.31463 0.115425 0)
(1.32836 0.153338 0)
(1.28399 0.0765013 0)
(1.30051 0.106237 0)
(1.25952 0.047848 0)
(1.27737 0.0706692 0)
(1.24038 0.0274619 0)
(1.25864 0.0445926 0)
(1.22576 0.0134578 0)
(1.24381 0.025994 0)
(1.21484 0.00423634 0)
(1.23231 0.0131359 0)
(1.2068 -0.00148748 0)
(1.22355 0.00468598 0)
(1.20102 -0.00474208 0)
(1.21705 -0.000603845 0)
(1.19694 -0.00631437 0)
(1.21225 -0.00368239 0)
(1.19408 -0.00679155 0)
(1.20878 -0.00518422 0)
(1.19212 -0.00660832 0)
(1.20629 -0.00569564 0)
(1.19079 -0.00605859 0)
(1.20451 -0.00559653 0)
(1.1899 -0.00533276 0)
(1.20325 -0.00515685 0)
(1.18933 -0.00455023 0)
(1.20237 -0.00455074 0)
(1.18896 -0.00378415 0)
(1.20176 -0.00388663 0)
(1.18874 -0.00307789 0)
(1.20135 -0.00322993 0)
(1.18861 -0.0024472 0)
(1.20108 -0.00262231 0)
(1.18854 -0.00190879 0)
(1.20089 -0.00207045 0)
(1.18851 -0.00139872 0)
(1.20078 -0.00161445 0)
(1.20068 -0.00109996 0)
(1.00258 0.0154055 0)
(1.00065 0.00649919 0)
(1.01028 0.0298317 0)
(1.00452 0.0196546 0)
(1.02211 0.0419601 0)
(1.01318 0.0314519 0)
(1.03675 0.0511899 0)
(1.02535 0.0409175 0)
(1.05305 0.0575505 0)
(1.03963 0.0478352 0)
(1.07011 0.0612842 0)
(1.05505 0.0523571 0)
(1.08718 0.0626698 0)
(1.07094 0.0547129 0)
(1.10368 0.061986 0)
(1.08675 0.0551314 0)
(1.11915 0.0595342 0)
(1.10197 0.0538303 0)
(1.13331 0.0555773 0)
(1.11621 0.0510566 0)
(1.14601 0.050218 0)
(1.12925 0.0469774 0)
(1.15704 0.0434541 0)
(1.14091 0.0416259 0)
(1.16625 0.0352558 0)
(1.15095 0.0349824 0)
(1.17358 0.0255513 0)
(1.15923 0.0269732 0)
(1.17897 0.0141502 0)
(1.16559 0.0174876 0)
(1.1824 0.000687223 0)
(1.16993 0.00621811 0)
(1.18381 -0.0153645 0)
(1.17208 -0.00727977 0)
(1.18303 -0.0346982 0)
(1.17185 -0.0235926 0)
(1.17997 -0.0581457 0)
(1.16897 -0.0434387 0)
(1.17464 -0.086748 0)
(1.16321 -0.0677207 0)
(1.16697 -0.121924 0)
(1.1543 -0.0976686 0)
(1.15699 -0.165557 0)
(1.14197 -0.134899 0)
(1.14496 -0.220114 0)
(1.12599 -0.181564 0)
(1.13145 -0.288881 2.04885e-32)
(1.10625 -0.240629 0)
(1.11764 -0.376248 4.15512e-34)
(1.08291 -0.316109 2.04885e-32)
(1.1059 -0.488086 -2.01104e-32)
(1.0568 -0.413508 -2.01104e-32)
(1.10064 -0.632201 0)
(1.02993 -0.540416 0)
(1.10962 -0.818668 0)
(1.0066 -0.707166 0)
(1.14524 -1.05756 0)
(0.99427 -0.926583 0)
(1.21514 -1.32327 0)
(1.00545 -1.20113 0)
(1.19658 -1.40693 0)
(0.976896 -1.37548 0)
(0.814129 -1.04693 0)
(0.608529 -1.02249 0)
(0.340284 -0.449747 -6.39021e-19)
(0.271721 0.0195129 0)
(0.277997 -0.0820868 -6.39021e-19)
(-0.0954539 0.219858 -6.39021e-19)
(0.115656 0 0)
(0 -0.119372 0)
(0.0604529 0 0)
(0 -0.0195235 0)
(0.0283297 0 0)
(0 -0.00176417 0)
(0.00527042 0 0)
(0 -0.00317585 0)
(0.310766 0.0476019 0)
(0 0.0128091 0)
(-0.135126 0.158142 0)
(-0.118367 -0.454779 0)
(0.0318077 0.287275 0)
(-0.214239 0.112933 -1.7635e-17)
(0.303096 0.416576 0)
(-0.0700712 0.236179 -1.86326e-16)
(0.590427 0.545046 0)
(0.1432 0.328335 0)
(0.844463 0.665825 0)
(0.40456 0.463638 0)
(1.04598 0.757562 0)
(0.641811 0.595758 0)
(1.19245 0.806385 0)
(0.835982 0.694146 0)
(1.29626 0.811796 0)
(0.986804 0.744208 0)
(1.36574 0.783267 0)
(1.10382 0.750257 0)
(1.40664 0.725765 0)
(1.19213 0.720963 0)
(1.42408 0.644309 0)
(1.25423 0.661855 0)
(1.42287 0.549214 0)
(1.29353 0.582373 0)
(1.40856 0.449923 0)
(1.31428 0.4917 0)
(1.38691 0.355371 0)
(1.32094 0.399095 0)
(1.36223 0.271706 0)
(1.31824 0.313333 0)
(1.3375 0.201373 0)
(1.3099 0.23852 0)
(1.31446 0.144872 0)
(1.2988 0.176386 0)
(1.29399 0.101004 0)
(1.28677 0.126705 0)
(1.2765 0.0678791 0)
(1.2751 0.0881537 0)
(1.26203 0.0434923 0)
(1.26443 0.0590682 0)
(1.25032 0.0259588 0)
(1.25519 0.0376994 0)
(1.24102 0.0137939 0)
(1.24739 0.0224381 0)
(1.23377 0.00570972 0)
(1.24095 0.0119403 0)
(1.22827 0.000559398 0)
(1.2358 0.00489724 0)
(1.22409 -0.00247023 0)
(1.2317 0.00048983 0)
(1.22097 -0.00402932 0)
(1.22855 -0.00206348 0)
(1.21866 -0.00463863 0)
(1.22609 -0.00338809 0)
(1.21696 -0.00466327 0)
(1.2242 -0.00389225 0)
(1.21571 -0.00435476 0)
(1.22276 -0.00391046 0)
(1.21481 -0.003874 0)
(1.22166 -0.00364639 0)
(1.21416 -0.00332327 0)
(1.22084 -0.00323548 0)
(1.21369 -0.00276801 0)
(1.22022 -0.00276461 0)
(1.21336 -0.00224148 0)
(1.21977 -0.00229227 0)
(1.21313 -0.00177396 0)
(1.21943 -0.0018385 0)
(1.21297 -0.00131508 0)
(1.2192 -0.00145263 0)
(1.21897 -0.000999613 0)
(1.00193 0.0110006 0)
(1.0005 0.0045732 0)
(1.00774 0.0214487 0)
(1.00348 0.0138455 0)
(1.01687 0.0304646 0)
(1.01023 0.022318 0)
(1.02848 0.0375409 0)
(1.01992 0.029305 0)
(1.04175 0.0425882 0)
(1.03157 0.0345639 0)
(1.05599 0.0457157 0)
(1.04446 0.0381207 0)
(1.07061 0.0470926 0)
(1.05802 0.0400908 0)
(1.08512 0.0468929 0)
(1.07181 0.0406268 0)
(1.09908 0.0452878 0)
(1.08535 0.0398671 0)
(1.11219 0.0424277 0)
(1.09828 0.0379446 0)
(1.1242 0.0383878 0)
(1.11032 0.0349647 0)
(1.13488 0.0331694 0)
(1.12123 0.0309523 0)
(1.14398 0.0267285 0)
(1.13073 0.0258761 0)
(1.1513 0.0189676 0)
(1.1386 0.0196549 0)
(1.15661 0.00965743 0)
(1.14456 0.0121778 0)
(1.15969 -0.00157075 0)
(1.14837 0.00314433 0)
(1.16023 -0.0152083 0)
(1.14968 -0.00782577 0)
(1.1579 -0.0318918 0)
(1.14809 -0.0212552 0)
(1.15227 -0.0524145 0)
(1.14309 -0.0378119 0)
(1.1429 -0.0778223 0)
(1.13411 -0.058354 0)
(1.12926 -0.109529 0)
(1.12044 -0.0840239 0)
(1.11073 -0.149441 0)
(1.10125 -0.116372 0)
(1.08669 -0.200172 0)
(1.07553 -0.157526 0)
(1.05653 -0.265348 0)
(1.0421 -0.210465 0)
(1.01984 -0.350055 0)
(0.999668 -0.279414 2.87398e-33)
(0.976761 -0.461521 0)
(0.946913 -0.370431 -2.86346e-33)
(0.928696 -0.610016 0)
(0.882798 -0.49235 0)
(0.879415 -0.809235 0)
(0.807003 -0.657884 0)
(0.835029 -1.0639 0)
(0.722973 -0.882197 0)
(0.767533 -1.25114 0)
(0.620295 -1.13364 0)
(0.442088 -0.979912 0)
(0.35281 -1.05003 -9.22543e-17)
(0.752883 -0.330943 0)
(-0.143634 -0.435234 0)
(0.730663 0 0)
(0 0.354944 0)
(0.0177588 0 0)
(0 -0.143151 0)
(0.0029524 0 0)
(0 -0.00202675 0)
(6.76105e-06 0 0)
(0 2.34205e-05 0)
(2.01888e-05 0 0)
(0 1.10937e-07 0)
(5.99878e-05 0 0)
(0 1.28814e-06 0)
(-0.0250106 0 0)
(0 -0.00326557 0)
(0.0304007 0.018146 -1.7635e-17)
(0 0.00532224 0)
(-0.385829 0.0732021 -2.03961e-16)
(-0.204914 -0.253529 -1.7635e-17)
(-0.251893 0.150899 -1.86326e-16)
(-0.370652 0.0661119 -1.86326e-16)
(-0.0352329 0.261115 0)
(-0.276197 0.111675 0)
(0.204897 0.405649 0)