/*--------------------------------*- C++ -*----------------------------------*\
| =========                 |                                                 |
| \\      /  F ield         | OpenFOAM: The Open Source CFD Toolbox           |
|  \\    /   O peration     | Version:  2206                                  |
|   \\  /    A nd           | Website:  www.openfoam.com                      |
|    \\/     M anipulation  |                                                 |
\*---------------------------------------------------------------------------*/
FoamFile
{
    version     2.0;
    format      ascii;
    arch        "LSB;label=32;scalar=64";
    class       volScalarField;
    location    "0.5";
    object      epsilon;
}
// * * * * * * * * * * * * * * * * * * * * * * * * * * * * * * * * * * * * * //

dimensions      [0 2 -3 0 0 0 0];

internalField   nonuniform List<scalar> 
1875
(
0.000335507
0.000755216
0.00159738
0.00239198
0.00281514
0.00289394
0.00274742
0.00250228
0.00224751
0.00202711
0.0018543
0.00172723
0.00163841
0.00157926
0.00154221
0.00152131
0.00151279
0.00151421
0.00152421
0.00154233
0.00156902
0.00160559
0.00165446
0.00171928
0.00180525
0.00191969
0.00207253
0.00227711
0.0025506
0.00291383
0.00338933
0.0039959
0.0047376
0.00558598
0.00646805
0.00724711
0.0076971
0.00770476
0.00727121
0.0065073
0.00557887
0.00465028
0.00383485
0.00318103
0.00268654
0.00232616
0.00206907
0.00188741
0.00175922
0.00166844
0.00160376
0.00155737
0.00152391
0.00149963
0.00148192
0.00146895
0.00145943
0.00145243
0.00144728
0.00144349
0.00144071
0.00143866
0.00143716
0.00143605
0.00143525
0.00143466
0.00143423
0.00143392
0.0014337
0.00143354
0.00143343
0.00143336
0.00143335
0.00143339
0.00143347
0.000236628
0.000349824
0.000584917
0.000883988
0.00116684
0.00135591
0.0014451
0.00145196
0.00140493
0.00133213
0.00125412
0.00118298
0.00112404
0.00107829
0.00104453
0.00102029
0.001003
0.000991413
0.000984367
0.000980988
0.000980727
0.000983395
0.000989218
0.000998872
0.00101349
0.00103483
0.00106542
0.00110866
0.00116899
0.00125184
0.00136343
0.0015101
0.00169656
0.00192318
0.00218301
0.00245777
0.00271881
0.00290686
0.00298384
0.00293098
0.00275761
0.00250022
0.00220821
0.00192578
0.00168114
0.00148506
0.00133638
0.00122774
0.00115009
0.00109516
0.00105635
0.00102883
0.0010092
0.000995078
0.000984832
0.000977335
0.000971814
0.000967727
0.000964689
0.000962424
0.000960732
0.000959467
0.00095852
0.000957811
0.000957281
0.000956886
0.000956591
0.00095637
0.000956204
0.000956082
0.000955993
0.000955936
0.000955913
0.000955939
0.00095599
0.000201915
0.000229038
0.000293637
0.000388114
0.000492813
0.000584779
0.000652341
0.000690086
0.000701309
0.000692856
0.000672089
0.000645518
0.000618009
0.000592545
0.000570633
0.000552957
0.000538697
0.000526995
0.000517375
0.000509313
0.000502325
0.000496032
0.000490224
0.000484898
0.000480182
0.000476461
0.0004744
0.00047499
0.000479582
0.000489893
0.000507959
0.000535935
0.000575582
0.000627938
0.000693633
0.000772289
0.000863989
0.000973738
0.00107884
0.00115801
0.00119219
0.00117269
0.00110777
0.00101482
0.000913376
0.000818538
0.000738574
0.000675838
0.000628984
0.00059507
0.000570938
0.000553891
0.000541867
0.000533354
0.000527274
0.000522891
0.000519706
0.00051737
0.000515646
0.000514365
0.000513411
0.000512696
0.00051216
0.000511757
0.000511455
0.000511227
0.000511056
0.000510927
0.000510831
0.000510759
0.000510706
0.00051067
0.000510655
0.000510683
0.000510839
0.000190473
0.000189208
0.000201403
0.000226305
0.000259367
0.000293124
0.000321448
0.00034078
0.000350543
0.000351827
0.000346272
0.00033611
0.000323583
0.000310445
0.000297899
0.000286732
0.00027755
0.000269797
0.000263165
0.000257364
0.000252114
0.000247161
0.000242315
0.000237514
0.000232764
0.000228191
0.000224027
0.000220681
0.000218769
0.000219114
0.000222601
0.000229698
0.000240034
0.000252729
0.000268233
0.000286889
0.000309236
0.000347029
0.000400101
0.000460991
0.000516708
0.000549481
0.000554216
0.00053368
0.00049613
0.000451574
0.000408144
0.000370605
0.000340634
0.000317934
0.00030131
0.000289371
0.000280893
0.000274899
0.000270648
0.000267615
0.000265438
0.000263862
0.000262713
0.000261869
0.000261245
0.000260783
0.000260439
0.000260182
0.000259991
0.000259847
0.00025974
0.00025966
0.0002596
0.000259555
0.000259522
0.000259499
0.000259488
0.000259508
0.000259652
0.000186951
0.000176044
0.000171097
0.000172039
0.000177588
0.000185471
0.000193273
0.000199101
0.000201905
0.00020147
0.000198115
0.000192616
0.000185856
0.000178641
0.000171529
0.000164934
0.000159258
0.000154584
0.000150662
0.000147312
0.000144367
0.000141674
0.000139105
0.000136609
0.000134299
0.000132133
0.000130254
0.000128957
0.000128731
0.000130224
0.000133764
0.000138145
0.000141061
0.000140533
0.000139579
0.000143844
0.000154922
0.000170958
0.000193525
0.000223031
0.000257006
0.00028635
0.00030296
0.000304129
0.000291659
0.000270479
0.000246168
0.000223034
0.00020339
0.000187905
0.000176289
0.00016784
0.000161811
0.000157559
0.000154571
0.000152465
0.000150973
0.000149907
0.000149139
0.000148582
0.000148174
0.000147875
0.000147654
0.00014749
0.000147369
0.000147279
0.000147211
0.000147161
0.000147124
0.000147096
0.000147076
0.000147061
0.000147054
0.000147062
0.000147142
0.000185854
0.000171871
0.000161179
0.000153746
0.000149129
0.000146531
0.00014501
0.000143672
0.000141882
0.000139339
0.000135997
0.000132001
0.000127625
0.000123149
0.000118824
0.000114846
0.000111374
0.000108558
0.000106285
0.000104444
0.000102936
0.00010167
0.000100557
9.95954e-05
9.87941e-05
9.82045e-05
9.79814e-05
9.84709e-05
0.000100284
0.000104085
0.000109076
0.000110838
0.000107621
9.84502e-05
9.00678e-05
0.000110276
0.000153592
0.000181661
0.000187477
0.000188536
0.000193404
0.000199419
0.000202913
0.000203514
0.000197353
0.000185377
0.0001703
0.000155026
0.000141572
0.000130766
0.000122611
0.000116701
0.000112524
0.000109611
0.000107617
0.000106249
0.000105303
0.000104643
0.000104178
0.000103846
0.000103607
0.000103434
0.000103307
0.000103214
0.000103146
0.000103095
0.000103057
0.000103029
0.000103008
0.000102993
0.000102982
0.000102973
0.000102968
0.00010297
0.000102998
0.000185481
0.000170511
0.000157931
0.000147605
0.000139294
0.000132655
0.000127273
0.000122726
0.000118662
0.000114855
0.000111183
0.000107616
0.000104198
0.00010098
9.80684e-05
9.55108e-05
9.333e-05
9.15704e-05
9.01975e-05
8.91445e-05
8.83491e-05
8.7752e-05
8.73177e-05
8.70785e-05
8.70072e-05
8.71883e-05
8.7859e-05
8.95459e-05
9.31289e-05
9.91034e-05
0.000103641
9.87723e-05
9.27194e-05
9.00328e-05
5.49057e-05
8.86892e-05
0.000138667
0.000131665
8.40016e-05
5.74757e-05
0.000157977
0.000175842
0.000173809
0.000165654
0.000157407
0.000147361
0.000135953
0.000124567
0.000114532
0.000106513
0.000100536
9.62896e-05
9.33669e-05
9.13965e-05
9.00829e-05
8.92101e-05
8.86267e-05
8.8234e-05
8.79674e-05
8.77845e-05
8.76567e-05
8.75659e-05
8.75007e-05
8.74534e-05
8.74189e-05
8.73936e-05
8.73749e-05
8.73611e-05
8.73509e-05
8.73434e-05
8.73378e-05
8.73337e-05
8.73307e-05
8.73285e-05
8.73276e-05
0.000185337
0.000170026
0.000156808
0.000145487
0.000135859
0.000127709
0.000120808
0.000114928
0.000109863
0.00010545
0.00010157
9.81448e-05
9.51316e-05
9.25047e-05
9.02499e-05
8.83559e-05
8.68044e-05
8.55826e-05
8.46611e-05
8.39942e-05
8.35395e-05
8.32631e-05
8.31443e-05
8.31779e-05
8.33927e-05
8.39253e-05
8.51492e-05
8.78719e-05
9.32752e-05
0.000101035
0.000102419
9.01821e-05
5.53583e-05
0.000126438
0.0002
0.0002
0.0002
0.0002
0.0002
0.0002
0.000114077
5.80839e-05
0.000134344
0.000141256
0.000136217
0.000128722
0.000119714
0.000110648
0.000102648
9.62955e-05
9.16317e-05
8.83914e-05
8.62241e-05
8.48126e-05
8.39021e-05
8.33298e-05
8.29666e-05
8.27338e-05
8.25813e-05
8.24788e-05
8.24092e-05
8.23612e-05
8.23277e-05
8.2304e-05
8.22872e-05
8.2275e-05
8.22661e-05
8.22597e-05
8.22549e-05
8.22514e-05
8.22488e-05
8.22468e-05
8.2245e-05
8.22414e-05
8.22265e-05
0.000185273
0.000169829
0.000156374
0.00014469
0.00013458
0.000125865
0.00011838
0.000111969
0.000106488
0.000101811
9.78294e-05
9.44532e-05
9.1608e-05
8.9233e-05
8.72756e-05
8.56887e-05
8.44301e-05
8.34645e-05
8.27572e-05
8.22699e-05
8.19678e-05
8.18239e-05
8.18208e-05
8.19619e-05
8.23111e-05
8.30903e-05
8.4864e-05
8.87756e-05
9.6164e-05
0.000105092
0.000101342
5.06295e-05
0.000175621
0.0002
0.0002
0.0002
0.0002
0.0002
0.0002
0.0002
0.0002
0.000116826
0.000122159
0.000123545
0.000121521
0.000117312
0.000110857
0.000103673
9.70928e-05
9.18145e-05
8.79533e-05
8.5307e-05
8.35764e-05
8.2483e-05
8.18075e-05
8.13962e-05
8.11468e-05
8.09947e-05
8.09004e-05
8.08404e-05
8.08012e-05
8.07747e-05
8.07565e-05
8.07436e-05
8.07345e-05
8.0728e-05
8.07234e-05
8.072e-05
8.07176e-05
8.07158e-05
8.07145e-05
8.07135e-05
8.07121e-05
8.0708e-05
8.06874e-05
0.000185241
0.000169736
0.00015618
0.000144348
0.000134045
0.000125106
0.000117389
0.000110764
0.000105114
0.000100327
9.63025e-05
9.29457e-05
9.01718e-05
8.79045e-05
8.60757e-05
8.46244e-05
8.3497e-05
8.26478e-05
8.20377e-05
8.163e-05
8.13925e-05
8.13004e-05
8.13425e-05
8.15415e-05
8.20114e-05
8.30874e-05
8.55584e-05
9.08827e-05
0.000100384
0.000108881
9.90215e-05
0.000126122
0.0002
0.0002
0.0002
0.0002
0.0002
0.0002
0.0002
0.0002
0.0002
0.0002
6.02742e-05
8.94887e-05
0.000102614
0.000106489
0.000104319
9.94098e-05
9.41295e-05
8.96534e-05
8.63173e-05
8.40288e-05
8.2548e-05
8.16309e-05
8.10807e-05
8.07576e-05
8.05701e-05
8.04612e-05
8.0397e-05
8.03582e-05
8.03338e-05
8.03177e-05
8.03068e-05
8.02992e-05
8.02938e-05
8.02898e-05
8.0287e-05
8.02849e-05
8.02834e-05
8.02824e-05
8.02816e-05
8.02809e-05
8.02797e-05
8.02754e-05
8.02528e-05
0.000185224
0.000169689
0.000156085
0.000144184
0.000133795
0.000124759
0.000116942
0.000110227
0.000104505
9.96728e-05
9.56312e-05
9.2284e-05
8.95415e-05
8.73208e-05
8.55475e-05
8.41547e-05
8.3084e-05
8.22854e-05
8.17167e-05
8.13414e-05
8.11288e-05
8.10573e-05
8.11248e-05
8.13795e-05
8.19962e-05
8.34366e-05
8.67052e-05
9.34256e-05
0.000104529
0.000108677
5.49556e-05
0.00027921
0.0002
0.0002
0.0002
0.0002
0.0002
0.0002
0.0002
0.0002
0.0002
0.0002
0.000111375
8.67545e-05
9.40317e-05
0.000100436
0.000100537
9.70553e-05
9.26109e-05
8.86252e-05
8.5587e-05
8.34879e-05
8.21336e-05
8.13036e-05
8.08151e-05
8.05362e-05
8.03803e-05
8.02938e-05
8.02455e-05
8.02178e-05
8.02011e-05
8.01904e-05
8.01833e-05
8.01782e-05
8.01746e-05
8.01719e-05
8.017e-05
8.01686e-05
8.01675e-05
8.01668e-05
8.01662e-05
8.01657e-05
8.01647e-05
8.01603e-05
8.0137e-05
0.000185216
0.000169666
0.000156039
0.000144106
0.000133678
0.000124598
0.000116738
0.000109983
0.000104232
9.93813e-05
9.53336e-05
9.19918e-05
8.92635e-05
8.70631e-05
8.53132e-05
8.39444e-05
8.28966e-05
8.21181e-05
8.15648e-05
8.12003e-05
8.09953e-05
8.09318e-05
8.10167e-05
8.13198e-05
8.20649e-05
8.38122e-05
8.76969e-05
9.52488e-05
0.000106558
0.000109674
7.36464e-05
0.0002
0.0002
0.0002
0.0002
0.0002
0.0002
0.0002
0.0002
0.0002
0.0002
0.0002
0.000236435
3.23158e-05
7.92499e-05
9.51358e-05
9.82148e-05
9.5843e-05
9.19126e-05
8.81872e-05
8.52933e-05
8.3279e-05
8.19775e-05
8.11829e-05
8.07193e-05
8.04586e-05
8.03162e-05
8.02397e-05
8.01987e-05
8.01762e-05
8.01633e-05
8.01553e-05
8.015e-05
8.01463e-05
8.01436e-05
8.01415e-05
8.014e-05
8.01389e-05
8.01381e-05
8.01375e-05
8.01371e-05
8.01366e-05
8.01356e-05
8.01313e-05
8.01078e-05
0.000185213
0.000169659
0.000156025
0.000144082
0.000133642
0.00012455
0.000116678
0.000109913
0.000104153
9.92982e-05
9.52501e-05
9.19112e-05
8.91884e-05
8.69949e-05
8.52522e-05
8.38903e-05
8.28485e-05
8.20742e-05
8.15232e-05
8.11594e-05
8.09544e-05
8.08916e-05
8.09817e-05
8.13023e-05
8.20938e-05
8.3948e-05
8.80421e-05
9.59106e-05
0.000108081
0.000112517
8.17157e-05
0.0002
0.0002
0.0002
0.0002
0.0002
0.0002
0.0002
0.0002
0.0002
0.0002
0.0002
0.0002
3.39295e-05
7.96909e-05
9.47899e-05
9.78657e-05
9.55704e-05
9.17256e-05
8.80572e-05
8.52089e-05
8.32257e-05
8.19432e-05
8.11594e-05
8.07019e-05
8.04448e-05
8.03046e-05
8.02296e-05
8.01897e-05
8.0168e-05
8.01557e-05
8.01481e-05
8.01431e-05
8.01396e-05
8.0137e-05
8.01351e-05
8.01337e-05
8.01326e-05
8.01318e-05
8.01312e-05
8.01308e-05
8.01304e-05
8.01294e-05
8.0125e-05
8.01014e-05
0.000185216
0.000169666
0.000156039
0.000144106
0.000133678
0.000124599
0.000116739
0.000109986
0.000104235
9.93875e-05
9.53426e-05
9.2004e-05
8.92789e-05
8.70812e-05
8.53332e-05
8.39651e-05
8.29166e-05
8.21358e-05
8.15789e-05
8.12103e-05
8.10008e-05
8.09328e-05
8.10138e-05
8.13141e-05
8.20582e-05
8.38061e-05
8.76866e-05
9.52142e-05
0.000106536
0.000109905
7.39663e-05
0.0002
0.0002
0.0002
0.0002
0.0002
0.0002
0.0002
0.0002
0.0002
0.0002
0.0002
0.000235318
3.20865e-05
7.93433e-05
9.47682e-05
9.7824e-05
9.55079e-05
9.16696e-05
8.80387e-05
8.52194e-05
8.32533e-05
8.19778e-05
8.11941e-05
8.07328e-05
8.04704e-05
8.0325e-05
8.02454e-05
8.02019e-05
8.01774e-05
8.01631e-05
8.0154e-05
8.0148e-05
8.01437e-05
8.01406e-05
8.01383e-05
8.01365e-05
8.01352e-05
8.01343e-05
8.01336e-05
8.0133e-05
8.01325e-05
8.01315e-05
8.01271e-05
8.01035e-05
0.000185224
0.000169689
0.000156085
0.000144184
0.000133795
0.000124759
0.000116942
0.000110227
0.000104506
9.96755e-05
9.56361e-05
9.22921e-05
8.95533e-05
8.73364e-05
8.55662e-05
8.41752e-05
8.31044e-05
8.23032e-05
8.17295e-05
8.13477e-05
8.11275e-05
8.10482e-05
8.11092e-05
8.136e-05
8.19771e-05
8.34206e-05
8.66829e-05
9.33608e-05
0.000104476
0.000109192
5.54172e-05
0.00027921
0.0002
0.0002
0.0002
0.0002
0.0002
0.0002
0.0002
0.0002
0.0002
0.0002
0.000109916
8.65703e-05
9.32964e-05
9.92513e-05
9.94231e-05
9.61601e-05
9.19762e-05
8.82241e-05
8.53598e-05
8.33731e-05
8.20826e-05
8.12844e-05
8.08088e-05
8.05333e-05
8.03765e-05
8.02878e-05
8.02372e-05
8.02075e-05
8.01893e-05
8.01776e-05
8.01696e-05
8.01639e-05
8.01598e-05
8.01567e-05
8.01545e-05
8.01528e-05
8.01516e-05
8.01507e-05
8.015e-05
8.01494e-05
8.01483e-05
8.01439e-05
8.01202e-05
0.000185241
0.000169736
0.00015618
0.000144348
0.000134044
0.000125103
0.000117381
0.00011075
0.000105091
0.000100296
9.62638e-05
9.2902e-05
9.01262e-05
8.78602e-05
8.60349e-05
8.4588e-05
8.34642e-05
8.26165e-05
8.20048e-05
8.15927e-05
8.13487e-05
8.12492e-05
8.12854e-05
8.14828e-05
8.19584e-05
8.3047e-05
8.55298e-05
9.08539e-05
0.000100414
0.000109505
0.000100303
0.00012755
0.0002
0.0002
0.0002
0.0002
0.0002
0.0002
0.0002
0.0002
0.0002
0.0002
5.85581e-05
8.7747e-05
0.000100156
0.000103894
0.000102034
9.76253e-05
9.2856e-05
8.88068e-05
8.57826e-05
8.37002e-05
8.2345e-05
8.14994e-05
8.09877e-05
8.06843e-05
8.05065e-05
8.04022e-05
8.03403e-05
8.03025e-05
8.02785e-05
8.02627e-05
8.02518e-05
8.02442e-05
8.02387e-05
8.02347e-05
8.02317e-05
8.02296e-05
8.0228e-05
8.02268e-05
8.0226e-05
8.02252e-05
8.0224e-05
8.02195e-05
8.01958e-05
0.000185273
0.000169829
0.000156374
0.000144688
0.000134573
0.000125847
0.000118342
0.0001119
0.00010638
0.000101661
9.764e-05
9.42318e-05
9.13662e-05
8.89833e-05
8.70292e-05
8.5454e-05
8.42114e-05
8.32615e-05
8.25666e-05
8.20872e-05
8.1789e-05
8.16461e-05
8.16442e-05
8.17912e-05
8.21559e-05
8.29639e-05
8.47787e-05
8.87389e-05
9.62079e-05
0.000105514
0.000102932
5.16879e-05
0.000180044
0.0002
0.0002
0.0002
0.0002
0.0002
0.0002
0.0002
0.0002
0.000113632
0.000117519
0.000119154
0.000116866
0.000112882
0.000107057
0.000100674
9.48732e-05
9.02427e-05
8.68655e-05
8.45536e-05
8.30413e-05
8.20852e-05
8.14942e-05
8.11345e-05
8.09169e-05
8.07846e-05
8.07029e-05
8.06511e-05
8.06173e-05
8.05946e-05
8.05789e-05
8.05678e-05
8.05599e-05
8.05542e-05
8.05501e-05
8.05472e-05
8.0545e-05
8.05434e-05
8.05423e-05
8.05413e-05
8.05399e-05
8.05353e-05
8.05117e-05
0.000185337
0.000170027
0.000156808
0.000145481
0.000135835
0.000127646
0.000120677
0.0001147
0.000109516
0.000104975
0.000100976
9.74542e-05
9.43778e-05
9.17237e-05
8.94745e-05
8.76113e-05
8.61058e-05
8.49345e-05
8.40603e-05
8.34332e-05
8.30105e-05
8.27594e-05
8.26625e-05
8.27205e-05
8.29689e-05
8.35523e-05
8.48498e-05
8.76701e-05
9.32139e-05
0.000101369
0.00010393
9.25735e-05
5.64691e-05
0.000129661
0.0002
0.0002
0.0002
0.0002
0.0002
0.0002
0.000111996
5.58896e-05
0.000129364
0.000134693
0.000129327
0.000122153
0.000113946
0.000105922
9.89722e-05
9.35287e-05
8.95718e-05
8.68436e-05
8.50302e-05
8.3856e-05
8.31025e-05
8.26339e-05
8.23392e-05
8.21523e-05
8.20309e-05
8.19499e-05
8.18951e-05
8.18575e-05
8.18314e-05
8.18131e-05
8.18e-05
8.17906e-05
8.17837e-05
8.17787e-05
8.17751e-05
8.17724e-05
8.17703e-05
8.17688e-05
8.1767e-05
8.17621e-05
8.17387e-05
0.000185481
0.000170513
0.00015793
0.000147586
0.000139223
0.000132472
0.000126906
0.000122105
0.000117742
0.000113625
0.000109672
0.000105887
0.000102331
9.9058e-05
9.61647e-05
9.36804e-05
9.16066e-05
8.9966e-05
8.87074e-05
8.77558e-05
8.70473e-05
8.65241e-05
8.6154e-05
8.59758e-05
8.5971e-05
8.62343e-05
8.70131e-05
8.88415e-05
9.26169e-05
9.89447e-05
0.000104354
0.000100927
9.56052e-05
9.35562e-05
5.59448e-05
8.96532e-05
0.000139003
0.000130186
8.18189e-05
5.55657e-05
0.000153468
0.000168793
0.000164812
0.000155637
0.000147106
0.000137449
0.000127089
0.000117122
0.000108549
0.000101816
9.68588e-05
9.33694e-05
9.09856e-05
8.93891e-05
8.83319e-05
8.76341e-05
8.71707e-05
8.68609e-05
8.6652e-05
8.65097e-05
8.64108e-05
8.63406e-05
8.62903e-05
8.62539e-05
8.62274e-05
8.6208e-05
8.61937e-05
8.61831e-05
8.61754e-05
8.61696e-05
8.61654e-05
8.61621e-05
8.61592e-05
8.61538e-05
8.61314e-05
0.000185856
0.000171876
0.000161177
0.000153697
0.000148944
0.000146076
0.000144125
0.000142223
0.000139796
0.000136626
0.000132742
0.000128349
0.000123743
0.000119197
0.000114934
0.000111113
0.000107853
0.000105264
0.000103207
0.000101558
0.000100217
9.9095e-05
9.81094e-05
9.72622e-05
9.6574e-05
9.61064e-05
9.6025e-05
9.66874e-05
9.87211e-05
0.000102854
0.000108487
0.000111363
0.000108842
0.000100308
9.37965e-05
0.000111678
0.000153568
0.000180281
0.00018467
0.00018384
0.000185694
0.000188892
0.000189513
0.000188013
0.000181101
0.000169848
0.000156552
0.000143512
0.000132237
0.000123282
0.000116568
0.000111719
0.000108298
0.000105914
0.000104284
0.000103168
0.000102397
0.000101859
0.00010148
0.000101209
0.000101015
0.000100874
0.000100771
0.000100695
0.000100639
0.000100598
0.000100567
0.000100545
0.000100528
0.000100516
0.000100507
0.0001005
0.000100494
0.000100488
0.00010047
0.000186956
0.000176056
0.000171094
0.000171929
0.000177183
0.000184493
0.000191426
0.000196167
0.000197812
0.000196306
0.000192097
0.000186035
0.000179009
0.000171789
0.000164863
0.000158575
0.000153263
0.000148953
0.000145363
0.000142303
0.000139605
0.000137121
0.000134731
0.00013239
0.000130221
0.000128189
0.00012645
0.000125305
0.000125255
0.000126979
0.000130894
0.000135904
0.000139482
0.000139429
0.00013881
0.000141844
0.000151514
0.000166179
0.000186502
0.000212329
0.000241221
0.000265098
0.000277447
0.000276689
0.000264901
0.0002464
0.00022576
0.000206379
0.000190014
0.000177124
0.000167432
0.000160352
0.000155275
0.000151676
0.000149137
0.000147338
0.000146059
0.000145143
0.000144482
0.000144
0.000143649
0.00014339
0.000143199
0.000143057
0.000142953
0.000142875
0.000142817
0.000142774
0.000142742
0.000142718
0.000142701
0.000142688
0.000142679
0.000142673
0.000142667
0.000190482
0.000189233
0.000201401
0.000226106
0.000258609
0.000291294
0.000318056
0.000335547
0.0003435
0.000343274
0.000336681
0.000325998
0.000313401
0.000300525
0.00028844
0.000277821
0.000269187
0.000261921
0.000255702
0.000250239
0.000245254
0.000240503
0.000235808
0.000231114
0.000226432
0.000221893
0.000217731
0.000214355
0.00021238
0.000212625
0.000215989
0.000222964
0.000233112
0.000245357
0.000259863
0.000276533
0.000296001
0.000329734
0.000376698
0.000429657
0.000477149
0.00050383
0.000506359
0.000487809
0.000455438
0.000417594
0.000380894
0.000349163
0.000323732
0.000304351
0.000290049
0.000279691
0.000272276
0.000266995
0.000263226
0.000260522
0.000258572
0.000257156
0.000256121
0.000255359
0.000254796
0.000254379
0.000254068
0.000253837
0.000253664
0.000253534
0.000253438
0.000253366
0.000253312
0.000253272
0.000253242
0.000253221
0.000253208
0.000253208
0.000253236
0.000201927
0.000229075
0.000293648
0.000387829
0.000491578
0.000581697
0.000646702
0.000681721
0.000690623
0.00068062
0.000659163
0.000632634
0.000605661
0.000580986
0.000559924
0.000543034
0.000529421
0.000518227
0.000508982
0.000501174
0.000494334
0.000488096
0.000482258
0.000476821
0.000471908
0.000467895
0.00046543
0.000465478
0.000469351
0.000478709
0.000495511
0.000521796
0.000559143
0.00060829
0.000669446
0.000741808
0.000825221
0.000924776
0.00101756
0.00108515
0.00111191
0.00109161
0.00103261
0.000950289
0.000861277
0.000778227
0.000708036
0.000652688
0.000611073
0.000580721
0.000558953
0.000543461
0.000532462
0.00052463
0.000519011
0.000514944
0.00051198
0.000509803
0.000508192
0.000506995
0.000506102
0.000505433
0.000504931
0.000504554
0.00050427
0.000504057
0.000503897
0.000503776
0.000503685
0.000503618
0.000503569
0.000503535
0.000503521
0.000503543
0.000503659
0.000236633
0.000349857
0.000584975
0.000883641
0.0011649
0.001351
0.00143661
0.00144035
0.00139137
0.00131791
0.00124026
0.00117006
0.00111227
0.00106763
0.0010348
0.00101127
0.000994489
0.000983222
0.000976349
0.000973014
0.000972684
0.000975176
0.000980715
0.000989963
0.00100403
0.00102464
0.00105427
0.00109624
0.00115488
0.00123546
0.00134394
0.00148632
0.00166681
0.00188512
0.00213369
0.00239383
0.00263781
0.00280861
0.00287175
0.00281291
0.00264361
0.00239925
0.0021255
0.00186212
0.00163412
0.00145094
0.00131144
0.00120899
0.00113539
0.00108305
0.00104591
0.00101948
0.00100057
0.000986935
0.000977023
0.00096976
0.000964407
0.000960441
0.00095749
0.000955289
0.000953644
0.000952414
0.000951492
0.000950802
0.000950286
0.0009499
0.000949612
0.000949395
0.000949233
0.000949112
0.000949026
0.000948974
0.000948971
0.000949064
0.000949361
0.00033552
0.000755325
0.00159752
0.00239079
0.00281079
0.00288566
0.00273585
0.00248885
0.00223361
0.00201371
0.00184186
0.00171584
0.00162795
0.00156951
0.00153295
0.00151236
0.00150399
0.00150545
0.00151535
0.00153329
0.00155968
0.00159585
0.0016442
0.00170834
0.00179346
0.00190679
0.00205825
0.00226108
0.00253235
0.00289275
0.00336472
0.00396696
0.00470357
0.00554636
0.00642282
0.00719678
0.00764241
0.0076476
0.00721509
0.00645566
0.00553432
0.00461384
0.00380612
0.00315864
0.00266886
0.00231174
0.00205681
0.00187654
0.00174927
0.0016591
0.00159483
0.00154874
0.00151549
0.00149136
0.00147377
0.00146089
0.00145143
0.00144448
0.00143937
0.00143561
0.00143284
0.00143081
0.00142931
0.00142822
0.00142742
0.00142684
0.00142641
0.0014261
0.00142588
0.00142572
0.00142561
0.00142556
0.00142561
0.00142583
0.00142637
)
;

boundaryField
{
    ibCylinder
    {
        type            immersedBoundaryEpsilonWallFunction;
        patchType       immersedBoundary;
        blending        stepwise;
        setDeadValue    true;
        deadValue       0.0002;
        value           nonuniform List<scalar> 0();
    }
    in
    {
        type            fixedValue;
        value           uniform 0.0002;
    }
    out
    {
        type            inletOutlet;
        inletValue      uniform 0.0002;
        value           nonuniform List<scalar> 
25
(
0.00143347
0.00095599
0.000510839
0.000259652
0.000147142
0.000102998
8.73276e-05
8.22265e-05
8.06874e-05
8.02528e-05
8.0137e-05
8.01078e-05
8.01014e-05
8.01035e-05
8.01202e-05
8.01958e-05
8.05117e-05
8.17387e-05
8.61314e-05
0.00010047
0.000142667
0.000253236
0.000503659
0.000949361
0.00142637
)
;
    }
    top
    {
        type            zeroGradient;
    }
    bottom
    {
        type            zeroGradient;
    }
    frontAndBack
    {
        type            empty;
    }
}


// ************************************************************************* //
