/*--------------------------------*- C++ -*----------------------------------*\
| =========                 |                                                 |
| \\      /  F ield         | OpenFOAM: The Open Source CFD Toolbox           |
|  \\    /   O peration     | Version:  2206                                  |
|   \\  /    A nd           | Website:  www.openfoam.com                      |
|    \\/     M anipulation  |                                                 |
\*---------------------------------------------------------------------------*/
FoamFile
{
    version     2.0;
    format      ascii;
    arch        "LSB;label=32;scalar=64";
    class       volScalarField;
    location    "0.5";
    object      k;
}
// * * * * * * * * * * * * * * * * * * * * * * * * * * * * * * * * * * * * * //

dimensions      [0 2 -2 0 0 0 0];

internalField   nonuniform List<scalar> 
1875
(
0.00020403
0.000338839
0.000575623
0.000802395
0.000947621
0.00100867
0.00100487
0.000963935
0.000909691
0.000856825
0.000812033
0.0007772
0.000751788
0.000734268
0.000722924
0.000716246
0.00071326
0.000713309
0.000715992
0.000721159
0.0007289
0.000739564
0.000753793
0.000772564
0.00079724
0.000829656
0.000872205
0.000927902
0.00100035
0.00109352
0.00121119
0.00135574
0.00152604
0.00171443
0.00190521
0.00207112
0.0021671
0.0021718
0.00208591
0.00192918
0.00173186
0.00152604
0.00133655
0.00117681
0.00104985
0.000952942
0.000880924
0.000828263
0.000790065
0.000762428
0.000742413
0.000727885
0.00071731
0.000709586
0.000703925
0.000699766
0.000696705
0.00069445
0.000692788
0.000691565
0.000690664
0.000690001
0.000689515
0.000689159
0.000688898
0.000688708
0.000688569
0.000688468
0.000688395
0.000688344
0.000688309
0.00068829
0.000688291
0.000688323
0.000688378
0.000165351
0.000203687
0.000277909
0.000373836
0.000471041
0.000545773
0.000592672
0.000613285
0.000613848
0.000602181
0.000584983
0.000566892
0.000550532
0.000537006
0.000526505
0.000518553
0.000512505
0.000508122
0.000505114
0.000503216
0.00050224
0.000502092
0.000502807
0.000504559
0.000507658
0.000512596
0.000520084
0.000531068
0.00054674
0.000568513
0.000597928
0.000636455
0.000685065
0.000743677
0.000810618
0.000881799
0.000950652
0.00100193
0.00102721
0.00102166
0.000986011
0.000927207
0.000856087
0.00078351
0.000717502
0.000662173
0.000618499
0.000585467
0.000561173
0.000543589
0.000530945
0.000521864
0.000515326
0.000510595
0.000507146
0.000504614
0.000502747
0.000501362
0.000500332
0.000499564
0.000498989
0.00049856
0.000498238
0.000497997
0.000497817
0.000497683
0.000497582
0.000497507
0.000497451
0.000497409
0.000497379
0.000497361
0.000497359
0.000497388
0.000497491
0.000151372
0.000161043
0.000182703
0.000214974
0.000252823
0.000289161
0.00031935
0.000340244
0.000351729
0.000355302
0.000353096
0.000347345
0.000339958
0.000332286
0.000325161
0.000319094
0.0003139
0.000309371
0.000305427
0.000301924
0.000298702
0.000295625
0.000292607
0.000289645
0.000286785
0.000284179
0.0002821
0.000280962
0.000281341
0.000283961
0.000289628
0.000299031
0.000312463
0.000329804
0.000350942
0.000375825
0.000404853
0.000439434
0.000473184
0.000500277
0.000514952
0.000513808
0.00049823
0.000472559
0.00044239
0.000412607
0.000386341
0.000364941
0.000348448
0.000336201
0.000327312
0.00032094
0.0003164
0.000313166
0.000310848
0.000309176
0.00030796
0.000307071
0.000306415
0.000305929
0.000305567
0.000305298
0.000305095
0.000304944
0.00030483
0.000304745
0.000304681
0.000304633
0.000304597
0.00030457
0.000304551
0.000304538
0.000304535
0.000304558
0.000304674
0.00014646
0.000145926
0.000149995
0.000158589
0.000170654
0.000183897
0.000196094
0.000205637
0.000211903
0.000214905
0.000214955
0.000212751
0.000209128
0.000204818
0.00020038
0.000196221
0.000192681
0.000189556
0.000186762
0.000184213
0.000181814
0.000179473
0.000177126
0.000174773
0.000172456
0.000170289
0.000168466
0.000167317
0.000167342
0.0001692
0.000173516
0.000180304
0.000188505
0.000196473
0.000203391
0.000209484
0.000215626
0.000227238
0.000244804
0.000266013
0.00028637
0.000299143
0.000302132
0.000295777
0.000282577
0.000265986
0.00024911
0.000234
0.000221575
0.000211938
0.000204749
0.000199518
0.000195774
0.000193117
0.000191234
0.000189893
0.000188936
0.000188247
0.000187748
0.000187385
0.000187118
0.000186922
0.000186776
0.000186669
0.000186589
0.000186529
0.000186485
0.000186452
0.000186427
0.000186409
0.000186395
0.000186386
0.000186383
0.000186397
0.000186486
0.000144847
0.000140431
0.000138231
0.000138186
0.000139917
0.000142723
0.000145775
0.000148329
0.000149884
0.000150224
0.000149357
0.000147531
0.000145074
0.000142317
0.000139496
0.000136801
0.000134436
0.000132454
0.00013075
0.000129256
0.00012791
0.000126658
0.000125468
0.000124361
0.000123487
0.000122926
0.000122938
0.000123979
0.000126787
0.000132353
0.000141337
0.000152426
0.0001622
0.000167525
0.000167038
0.000165876
0.000167426
0.000170524
0.000176079
0.000184753
0.00019593
0.000205712
0.000210662
0.000209568
0.000202874
0.000192396
0.000180431
0.000168909
0.00015897
0.000151016
0.00014498
0.000140556
0.000137391
0.000135163
0.000133608
0.000132524
0.000131767
0.000131235
0.000130858
0.000130589
0.000130396
0.000130257
0.000130155
0.000130081
0.000130027
0.000129987
0.000129958
0.000129936
0.00012992
0.000129908
0.000129899
0.000129893
0.000129891
0.000129897
0.000129944
0.000144309
0.000138519
0.000133959
0.000130637
0.000128395
0.000126954
0.000125977
0.000125129
0.000124154
0.000122915
0.000121372
0.000119567
0.000117606
0.000115597
0.000113646
0.000111843
0.000110262
0.000108981
0.000107948
0.000107115
0.000106445
0.000105914
0.000105517
0.000105331
0.000105483
0.000106201
0.000107904
0.000111358
0.000117854
0.000129068
0.000145242
0.00016154
0.00017282
0.000179629
0.000171228
0.0001766
0.000200016
0.000214951
0.000214686
0.00020896
0.000202255
0.000194874
0.000187281
0.000180617
0.000172352
0.000162359
0.00015156
0.000141202
0.000132233
0.000125046
0.000119608
0.000115654
0.000112858
0.000110913
0.000109593
0.000108702
0.000108099
0.00010769
0.000107411
0.000107219
0.000107086
0.000106993
0.000106927
0.000106881
0.000106847
0.000106823
0.000106806
0.000106793
0.000106784
0.000106777
0.000106772
0.000106769
0.000106767
0.000106768
0.000106785
0.000144114
0.000137837
0.000132405
0.000127819
0.000124014
0.000120871
0.00011824
0.000115957
0.000113887
0.000111941
0.000110073
0.000108273
0.000106561
0.000104956
0.000103515
0.000102257
0.00010119
0.000100335
9.96782e-05
9.91938e-05
9.88656e-05
9.86939e-05
9.87232e-05
9.90928e-05
9.99641e-05
0.000101701
0.000104989
0.000111114
0.000122257
0.000140862
0.000164634
0.000183685
0.000199919
0.000246744
0.000195851
0.000171665
0.000172222
0.000179236
0.000179106
0.000187365
0.000254247
0.000241764
0.000215418
0.000190749
0.000172682
0.000157697
0.000144491
0.000132979
0.000123458
0.000116039
0.000110537
0.000106608
0.00010388
0.000102025
0.000100782
9.99584e-05
9.94144e-05
9.90568e-05
9.88225e-05
9.86692e-05
9.85682e-05
9.85009e-05
9.84558e-05
9.84253e-05
9.84045e-05
9.83901e-05
9.83802e-05
9.83732e-05
9.83682e-05
9.83647e-05
9.83622e-05
9.83603e-05
9.8359e-05
9.83581e-05
9.83573e-05
0.000144035
0.000137575
0.000131815
0.000126741
0.000122314
0.000118479
0.000115162
0.000112281
0.000109758
0.000107531
0.000105554
0.000103797
0.000102245
0.000100888
9.97222e-05
9.87443e-05
9.79467e-05
9.73253e-05
9.68703e-05
9.65698e-05
9.64256e-05
9.64679e-05
9.67755e-05
9.75017e-05
9.8928e-05
0.000101595
0.000106554
0.000115818
0.000132679
0.000159726
0.000188711
0.000212046
0.000193881
0.000196115
0.00015
0.00015
0.00015
0.00015
0.00015
0.00015
0.000212397
0.000223982
0.000232233
0.000206062
0.000181659
0.000162392
0.000146303
0.000132973
0.000122314
0.000114188
0.000108259
0.000104078
0.000101204
9.9266e-05
9.79744e-05
9.71321e-05
9.65845e-05
9.62305e-05
9.60018e-05
9.58539e-05
9.57587e-05
9.56977e-05
9.56586e-05
9.56336e-05
9.56175e-05
9.56071e-05
9.56002e-05
9.55957e-05
9.55927e-05
9.55907e-05
9.55893e-05
9.55883e-05
9.55873e-05
9.55853e-05
9.55762e-05
0.000143998
0.000137462
0.000131571
0.0001263
0.000121619
0.000117495
0.000113887
0.000110749
0.000108032
0.000105687
0.000103672
0.000101949
0.000100486
9.92555e-05
9.82359e-05
9.74066e-05
9.67496e-05
9.62518e-05
9.59039e-05
9.57021e-05
9.5662e-05
9.58339e-05
9.63273e-05
9.73505e-05
9.9296e-05
0.000102927
0.000109758
0.000122674
0.000146007
0.000181134
0.000209763
0.000193895
0.000186663
0.00015
0.00015
0.00015
0.00015
0.00015
0.00015
0.00015
0.00015
0.000200552
0.000220629
0.00020574
0.000184775
0.000165805
0.000148991
0.000134744
0.000123306
0.0001146
0.000108261
0.000103796
0.00010073
9.86624e-05
9.72879e-05
9.63845e-05
9.57961e-05
9.54158e-05
9.51714e-05
9.50152e-05
9.49157e-05
9.48527e-05
9.48129e-05
9.47879e-05
9.47721e-05
9.47623e-05
9.47561e-05
9.47522e-05
9.47498e-05
9.47482e-05
9.47472e-05
9.47465e-05
9.47456e-05
9.47432e-05
9.47307e-05
0.00014398
0.000137408
0.000131457
0.0001261
0.000121308
0.000117057
0.00011332
0.000110068
0.000107262
0.000104865
0.000102834
0.000101128
9.97077e-05
9.85389e-05
9.759e-05
9.68336e-05
9.62464e-05
9.58113e-05
9.55188e-05
9.53709e-05
9.53933e-05
9.56543e-05
9.62958e-05
9.7588e-05
0.000100048
0.000104697
0.000113564
0.000130421
0.000160381
0.000200932
0.000221102
0.000204414
0.00015
0.00015
0.00015
0.00015
0.00015
0.00015
0.00015
0.00015
0.00015
0.00015
0.000173197
0.000183845
0.000176363
0.000163437
0.000148987
0.000135404
0.000124009
0.000115159
0.000108645
0.000104025
0.000100832
9.86674e-05
9.72201e-05
9.62628e-05
9.56354e-05
9.52275e-05
9.49642e-05
9.47955e-05
9.46881e-05
9.46202e-05
9.45775e-05
9.45508e-05
9.45341e-05
9.45239e-05
9.45175e-05
9.45136e-05
9.45112e-05
9.45097e-05
9.45087e-05
9.45081e-05
9.45073e-05
9.45046e-05
9.4491e-05
0.00014397
0.00013738
0.000131401
0.000126002
0.000121157
0.000116847
0.000113051
0.000109744
0.000106897
0.000104474
0.000102435
0.000100737
9.93365e-05
9.81955e-05
9.72789e-05
9.65558e-05
9.60009e-05
9.55953e-05
9.53295e-05
9.52094e-05
9.52689e-05
9.55922e-05
9.63514e-05
9.78783e-05
0.000100818
0.000106447
0.00011726
0.000137649
0.000172819
0.000211652
0.000197391
0.000191039
0.00015
0.00015
0.00015
0.00015
0.00015
0.00015
0.00015
0.00015
0.00015
0.00015
0.000150814
0.000159241
0.000163131
0.000157579
0.000146686
0.00013465
0.000123885
0.000115267
0.000108815
0.000104187
0.000100961
9.87573e-05
9.72729e-05
9.62844e-05
9.56321e-05
9.52054e-05
9.49284e-05
9.47499e-05
9.46358e-05
9.45635e-05
9.45179e-05
9.44894e-05
9.44718e-05
9.44609e-05
9.44542e-05
9.44501e-05
9.44476e-05
9.44461e-05
9.44452e-05
9.44445e-05
9.44437e-05
9.4441e-05
9.44269e-05
0.000143966
0.000137367
0.000131373
0.000125955
0.000121086
0.000116749
0.000112924
0.000109593
0.000106727
0.000104293
0.00010225
0.000100555
9.91631e-05
9.80342e-05
9.71312e-05
9.6422e-05
9.58803e-05
9.54868e-05
9.52319e-05
9.51237e-05
9.52017e-05
9.55612e-05
9.63971e-05
9.80887e-05
0.00010138
0.000107735
0.000119903
0.000142404
0.000180153
0.00021791
0.00019979
0.00015
0.00015
0.00015
0.00015
0.00015
0.00015
0.00015
0.00015
0.00015
0.00015
0.00015
0.000140291
0.000141994
0.000150927
0.000151321
0.000143769
0.000133291
0.000123278
0.000115022
0.000108744
0.000104194
0.000100998
9.87996e-05
9.73097e-05
9.63117e-05
9.56495e-05
9.52139e-05
9.49296e-05
9.47457e-05
9.46276e-05
9.45524e-05
9.4505e-05
9.44753e-05
9.44568e-05
9.44454e-05
9.44385e-05
9.44342e-05
9.44317e-05
9.44301e-05
9.44292e-05
9.44285e-05
9.44277e-05
9.4425e-05
9.44108e-05
0.000143964
0.000137363
0.000131365
0.00012594
0.000121065
0.000116719
0.000112887
0.000109548
0.000106677
0.00010424
0.000102197
0.000100503
9.91148e-05
9.799e-05
9.70912e-05
9.63859e-05
9.58476e-05
9.54565e-05
9.52033e-05
9.50972e-05
9.51795e-05
9.55493e-05
9.6409e-05
9.8154e-05
0.000101559
0.000108135
0.000120656
0.000143555
0.000181845
0.000216486
0.000199599
0.00015
0.00015
0.00015
0.00015
0.00015
0.00015
0.00015
0.00015
0.00015
0.00015
0.00015
0.00015
0.000136366
0.00014528
0.000147826
0.000141862
0.000132231
0.000122688
0.000114693
0.000108571
0.000104113
0.000100967
9.87941e-05
9.73157e-05
9.63213e-05
9.56589e-05
9.52215e-05
9.49349e-05
9.47488e-05
9.46289e-05
9.45523e-05
9.45038e-05
9.44733e-05
9.44543e-05
9.44426e-05
9.44354e-05
9.4431e-05
9.44284e-05
9.44267e-05
9.44258e-05
9.44251e-05
9.44243e-05
9.44215e-05
9.44073e-05
0.000143966
0.000137367
0.000131373
0.000125955
0.000121086
0.000116749
0.000112925
0.000109594
0.000106729
0.000104297
0.000102256
0.000100562
9.91729e-05
9.80456e-05
9.71435e-05
9.64346e-05
9.58923e-05
9.54972e-05
9.524e-05
9.51293e-05
9.52044e-05
9.55604e-05
9.63911e-05
9.80746e-05
0.000101352
0.000107675
0.000119771
0.000142151
0.000179812
0.000217746
0.000200308
0.00015
0.00015
0.00015
0.00015
0.00015
0.00015
0.00015
0.00015
0.00015
0.00015
0.00015
0.000140867
0.000141219
0.000149668
0.000149887
0.000142451
0.000132246
0.000122531
0.000114532
0.000108448
0.000104031
0.000100918
9.87676e-05
9.73035e-05
9.63175e-05
9.56596e-05
9.52242e-05
9.49385e-05
9.47525e-05
9.46324e-05
9.45554e-05
9.45065e-05
9.44757e-05
9.44564e-05
9.44444e-05
9.4437e-05
9.44325e-05
9.44297e-05
9.4428e-05
9.4427e-05
9.44263e-05
9.44254e-05
9.44227e-05
9.44084e-05
0.00014397
0.00013738
0.000131401
0.000126002
0.000121158
0.000116848
0.000113051
0.000109745
0.000106899
0.000104478
0.00010244
0.000100744
9.93462e-05
9.82075e-05
9.72925e-05
9.65701e-05
9.60147e-05
9.5607e-05
9.53379e-05
9.52137e-05
9.52681e-05
9.55846e-05
9.63337e-05
9.78445e-05
0.000100756
0.000106328
0.000117019
0.000137167
0.000172041
0.000211102
0.000198188
0.000191894
0.00015
0.00015
0.00015
0.00015
0.00015
0.00015
0.00015
0.00015
0.00015
0.00015
0.000149568
0.000156857
0.000160206
0.00015471
0.000144285
0.000132843
0.000122637
0.000114471
0.000108347
0.000103938
0.000100846
9.87175e-05
9.72717e-05
9.62995e-05
9.56514e-05
9.52229e-05
9.49417e-05
9.47585e-05
9.46401e-05
9.45642e-05
9.45158e-05
9.44852e-05
9.4466e-05
9.4454e-05
9.44465e-05
9.44419e-05
9.44391e-05
9.44373e-05
9.44362e-05
9.44354e-05
9.44345e-05
9.44318e-05
9.44175e-05
0.00014398
0.000137408
0.000131457
0.0001261
0.000121307
0.000117056
0.000113317
0.000110062
0.000107253
0.000104853
0.000102819
0.000101111
9.96912e-05
9.85234e-05
9.75763e-05
9.68215e-05
9.62354e-05
9.57999e-05
9.55053e-05
9.53537e-05
9.53707e-05
9.56237e-05
9.62524e-05
9.75231e-05
9.99458e-05
0.000104525
0.000113253
0.000129831
0.000159351
0.000199843
0.000221148
0.000205792
0.00015
0.00015
0.00015
0.00015
0.00015
0.00015
0.00015
0.00015
0.00015
0.00015
0.000169486
0.000178665
0.000171534
0.000159393
0.00014587
0.000133173
0.000122519
0.000114235
0.000108117
0.000103753
0.000100713
9.86301e-05
9.72213e-05
9.62773e-05
9.565e-05
9.52362e-05
9.49652e-05
9.47889e-05
9.4675e-05
9.46018e-05
9.45552e-05
9.45256e-05
9.45069e-05
9.44952e-05
9.44879e-05
9.44833e-05
9.44804e-05
9.44786e-05
9.44775e-05
9.44767e-05
9.44758e-05
9.4473e-05
9.44587e-05
0.000143998
0.000137462
0.000131571
0.000126299
0.000121616
0.000117487
0.00011387
0.000110719
0.000107985
0.000105622
0.000103589
0.000101851
0.000100378
9.91442e-05
9.81254e-05
9.73002e-05
9.6649e-05
9.61566e-05
9.58122e-05
9.56118e-05
9.55703e-05
9.57373e-05
9.62202e-05
9.7223e-05
9.91307e-05
0.000102692
0.000109387
0.000122035
0.000144899
0.00017963
0.000209122
0.000195723
0.000190777
0.00015
0.00015
0.00015
0.00015
0.00015
0.00015
0.00015
0.00015
0.000195834
0.000214518
0.000199585
0.000179448
0.000161596
0.00014584
0.000132509
0.000121813
0.000113666
0.000107714
0.000103497
0.000100575
9.8583e-05
9.72408e-05
9.63456e-05
9.57531e-05
9.53638e-05
9.51094e-05
9.4944e-05
9.48371e-05
9.47684e-05
9.47244e-05
9.46963e-05
9.46785e-05
9.46673e-05
9.46602e-05
9.46558e-05
9.46529e-05
9.46511e-05
9.465e-05
9.46492e-05
9.46482e-05
9.46454e-05
9.46312e-05
0.000144035
0.000137575
0.000131815
0.000126739
0.000122305
0.000118453
0.000115108
0.000112185
0.00010961
0.000107325
0.000105292
0.000103489
0.000101904
0.00010053
9.93623e-05
9.83938e-05
9.76127e-05
9.70099e-05
9.65724e-05
9.62861e-05
9.61523e-05
9.62004e-05
9.65076e-05
9.72241e-05
9.86246e-05
0.000101237
0.000106086
0.000115132
0.000131599
0.00015825
0.000187717
0.000212717
0.000196236
0.000200153
0.00015
0.00015
0.00015
0.00015
0.00015
0.00015
0.000209127
0.00021723
0.000225771
0.000200607
0.000177281
0.000158873
0.000143528
0.000130872
0.000120798
0.00011314
0.000107551
0.000103595
0.000100856
9.89906e-05
9.77321e-05
9.69002e-05
9.63512e-05
9.5991e-05
9.57549e-05
9.56002e-05
9.54996e-05
9.54345e-05
9.53926e-05
9.53658e-05
9.53486e-05
9.53375e-05
9.53303e-05
9.53257e-05
9.53227e-05
9.53207e-05
9.53193e-05
9.53184e-05
9.53173e-05
9.53145e-05
9.53005e-05
0.000144114
0.000137838
0.000132405
0.000127813
0.000123988
0.000120804
0.000118099
0.000115711
0.000113511
0.000111424
0.000109421
0.000107509
0.000105718
0.00010407
0.000102621
0.000101382
0.00010035
9.95387e-05
9.89252e-05
9.84794e-05
9.81844e-05
9.80402e-05
9.80903e-05
9.84723e-05
9.9343e-05
0.000101057
0.000104281
0.000110266
0.000121145
0.000139425
0.000163347
0.000183577
0.000200917
0.000248235
0.000199193
0.000174184
0.000173547
0.00017862
0.000176199
0.000182875
0.00024808
0.000237015
0.000210851
0.000186927
0.000169178
0.000154395
0.000141515
0.000130452
0.000121414
0.00011443
0.000109269
0.000105582
0.000103012
0.000101252
0.000100063
9.92677e-05
9.87372e-05
9.83855e-05
9.81535e-05
9.80012e-05
9.79007e-05
9.7834e-05
9.77897e-05
9.77601e-05
9.77403e-05
9.77269e-05
9.77178e-05
9.77116e-05
9.77073e-05
9.77044e-05
9.77023e-05
9.77008e-05
9.76994e-05
9.76964e-05
9.76831e-05
0.00014431
0.000138521
0.000133959
0.000130625
0.000128342
0.000126808
0.000125671
0.000124594
0.000123343
0.000121812
0.000119997
0.000117974
0.000115862
0.000113774
0.000111809
0.00011004
0.000108525
0.000107323
0.000106369
0.000105609
0.000105005
0.000104533
0.000104188
0.000104045
0.000104232
0.00010497
0.000106666
0.000110067
0.000116437
0.000127476
0.000143673
0.000160604
0.00017254
0.000180625
0.000176252
0.000180777
0.000202157
0.000215315
0.000214221
0.000207597
0.000199655
0.000191796
0.000183522
0.000176187
0.000167441
0.000157402
0.000146959
0.000137188
0.000128857
0.000122238
0.000117246
0.000113616
0.00011104
0.000109241
0.000108014
0.000107182
0.000106616
0.000106232
0.000105969
0.00010579
0.000105666
0.00010558
0.00010552
0.000105478
0.000105448
0.000105427
0.000105412
0.000105402
0.000105394
0.000105388
0.000105385
0.000105382
0.000105379
0.000105376
0.000105365
0.000144848
0.000140435
0.000138236
0.000138173
0.000139829
0.000142459
0.000145202
0.000147327
0.000148378
0.000148208
0.000146889
0.000144715
0.000142036
0.000139176
0.000136351
0.000133721
0.000131461
0.000129598
0.000128011
0.000126625
0.000125376
0.000124211
0.000123098
0.000122062
0.000121248
0.000120738
0.000120784
0.000121833
0.000124612
0.000130123
0.000139134
0.000150567
0.000160983
0.00016723
0.000168251
0.000167174
0.000168182
0.000170643
0.000175271
0.000182635
0.000192069
0.000199949
0.000203269
0.000201172
0.000194281
0.000184305
0.000173265
0.000162797
0.00015383
0.000146667
0.000141222
0.000137217
0.000134337
0.0001323
0.000130871
0.000129871
0.000129171
0.000128679
0.000128331
0.000128083
0.000127906
0.000127779
0.000127687
0.000127621
0.000127572
0.000127537
0.000127511
0.000127492
0.000127479
0.000127468
0.000127461
0.000127456
0.000127452
0.000127449
0.000127446
0.000146461
0.000145934
0.000150016
0.000158601
0.000170558
0.000183503
0.000195175
0.000204009
0.000209491
0.000211753
0.000211205
0.00020859
0.000204747
0.000200378
0.000195993
0.000191955
0.000188565
0.000185589
0.000182931
0.000180502
0.000178204
0.000175948
0.00017367
0.000171373
0.000169098
0.000166959
0.000165148
0.000163987
0.000163974
0.000165772
0.000170046
0.000176914
0.000185381
0.000193756
0.000201086
0.000207076
0.000212544
0.000222956
0.000238689
0.000257568
0.000275471
0.000286253
0.000288222
0.00028198
0.000269846
0.000254873
0.000239748
0.000226224
0.000215079
0.000206395
0.000199877
0.000195101
0.00019166
0.000189204
0.000187454
0.000186204
0.000185309
0.000184665
0.000184199
0.00018386
0.000183612
0.000183429
0.000183295
0.000183196
0.000183123
0.000183068
0.000183028
0.000182998
0.000182976
0.000182959
0.000182947
0.000182939
0.000182934
0.000182935
0.000182952
0.000151372
0.000161058
0.000182773
0.000215087
0.000252808
0.000288682
0.000318058
0.000337929
0.000348397
0.000351138
0.000348378
0.000342352
0.000334914
0.000327335
0.00032038
0.000314502
0.000309478
0.000305094
0.000301264
0.000297844
0.000294676
0.000291624
0.000288606
0.00028562
0.000282708
0.000280019
0.00027782
0.00027652
0.000276686
0.000279034
0.000284372
0.000293406
0.000306436
0.000323286
0.000343699
0.000367407
0.000394671
0.000426897
0.000457698
0.000481918
0.000494575
0.000492866
0.000478287
0.000454811
0.000427416
0.000400401
0.000376523
0.000356986
0.000341843
0.000330528
0.000322261
0.000316298
0.000312026
0.00030897
0.000306772
0.000305183
0.000304026
0.000303179
0.000302555
0.000302093
0.000301749
0.000301493
0.000301301
0.000301158
0.000301051
0.00030097
0.00030091
0.000300864
0.00030083
0.000300805
0.000300787
0.000300775
0.000300772
0.000300786
0.000300851
0.000165349
0.000203728
0.000278107
0.000374187
0.00047121
0.000545201
0.000590944
0.00061034
0.00060993
0.000597677
0.000580258
0.000562206
0.000546029
0.000532735
0.000522455
0.000514681
0.000508762
0.000504466
0.000501506
0.00049962
0.000498622
0.000498422
0.000499054
0.000500687
0.000503626
0.000508355
0.00051557
0.000526203
0.000541426
0.000562621
0.000591293
0.000628863
0.000676237
0.000733229
0.000798043
0.000866487
0.000932131
0.000980074
0.00100263
0.000995785
0.000960726
0.000904275
0.000836633
0.00076784
0.000705261
0.000652681
0.00061103
0.000579397
0.000556034
0.000539056
0.000526806
0.000517982
0.000511615
0.000506999
0.000503631
0.000501157
0.000499332
0.000497978
0.00049697
0.000496219
0.000495658
0.000495237
0.000494923
0.000494687
0.000494511
0.00049438
0.000494281
0.000494207
0.000494152
0.000494111
0.000494082
0.000494066
0.000494072
0.000494124
0.000494287
0.000204077
0.000339076
0.000576176
0.000802874
0.000947344
0.00100717
0.00100215
0.000960299
0.000905568
0.000852564
0.000807852
0.000773195
0.000747973
0.000730614
0.000719387
0.000712782
0.000709834
0.000709889
0.00071255
0.000717669
0.000725339
0.000735907
0.000750013
0.000768629
0.000793114
0.000825298
0.000867568
0.000922931
0.000994981
0.00108769
0.00120483
0.00134879
0.00151847
0.00170626
0.0018965
0.00206195
0.00215746
0.00216186
0.00207613
0.00192002
0.00172367
0.001519
0.0013306
0.00117176
0.00104546
0.000948989
0.000877244
0.000824745
0.000786644
0.000759066
0.000739091
0.000724592
0.000714039
0.000706332
0.000700686
0.000696538
0.000693487
0.000691239
0.000689583
0.000688364
0.000687467
0.000686808
0.000686324
0.000685969
0.000685709
0.000685519
0.000685381
0.00068528
0.000685207
0.000685155
0.000685122
0.000685111
0.000685141
0.00068526
0.00068555
)
;

boundaryField
{
    ibCylinder
    {
        type            immersedBoundaryKqRWallFunction;
        patchType       immersedBoundary;
        setDeadValue    true;
        deadValue       0.00015;
        value           nonuniform List<scalar> 0();
    }
    in
    {
        type            fixedValue;
        value           uniform 0.00015;
    }
    out
    {
        type            inletOutlet;
        inletValue      uniform 0.00015;
        value           nonuniform List<scalar> 
25
(
0.000688378
0.000497491
0.000304674
0.000186486
0.000129944
0.000106785
9.83573e-05
9.55762e-05
9.47307e-05
9.4491e-05
9.44269e-05
9.44108e-05
9.44073e-05
9.44084e-05
9.44175e-05
9.44587e-05
9.46312e-05
9.53005e-05
9.76831e-05
0.000105365
0.000127446
0.000182952
0.000300851
0.000494287
0.00068555
)
;
    }
    top
    {
        type            zeroGradient;
    }
    bottom
    {
        type            zeroGradient;
    }
    frontAndBack
    {
        type            empty;
    }
}


// ************************************************************************* //
