/*--------------------------------*- C++ -*----------------------------------*\
| =========                 |                                                 |
| \\      /  F ield         | OpenFOAM: The Open Source CFD Toolbox           |
|  \\    /   O peration     | Version:  2206                                  |
|   \\  /    A nd           | Website:  www.openfoam.com                      |
|    \\/     M anipulation  |                                                 |
\*---------------------------------------------------------------------------*/
FoamFile
{
    version     2.0;
    format      ascii;
    arch        "LSB;label=32;scalar=64";
    class       volScalarField;
    location    "0.5";
    object      nut;
}
// * * * * * * * * * * * * * * * * * * * * * * * * * * * * * * * * * * * * * //

dimensions      [0 2 -1 0 0 0 0];

internalField   nonuniform List<scalar> 
1875
(
1.11668e-05
1.36823e-05
1.86686e-05
2.42249e-05
2.87086e-05
3.16409e-05
3.30779e-05
3.34196e-05
3.31382e-05
3.25948e-05
3.20044e-05
3.14744e-05
3.10463e-05
3.07254e-05
3.0499e-05
3.03493e-05
3.02663e-05
3.0242e-05
3.02702e-05
3.03477e-05
3.04755e-05
3.0659e-05
3.09094e-05
3.1244e-05
3.1687e-05
3.22707e-05
3.30354e-05
3.40301e-05
3.53103e-05
3.69343e-05
3.89543e-05
4.1398e-05
4.42401e-05
4.73569e-05
5.05075e-05
5.32705e-05
5.49128e-05
5.50962e-05
5.38551e-05
5.14742e-05
4.83863e-05
4.50711e-05
4.19239e-05
3.91823e-05
3.69239e-05
3.51346e-05
3.37554e-05
3.27124e-05
3.19336e-05
3.13566e-05
3.0931e-05
3.06179e-05
3.03876e-05
3.02182e-05
3.00934e-05
3.00014e-05
2.99335e-05
2.98833e-05
2.98463e-05
2.9819e-05
2.97989e-05
2.97841e-05
2.97733e-05
2.97653e-05
2.97595e-05
2.97552e-05
2.97521e-05
2.97498e-05
2.97482e-05
2.97471e-05
2.97463e-05
2.9746e-05
2.97465e-05
2.97483e-05
2.97515e-05
1.03989e-05
1.06738e-05
1.18838e-05
1.42285e-05
1.71138e-05
1.97713e-05
2.18762e-05
2.33137e-05
2.41384e-05
2.44991e-05
2.45578e-05
2.44493e-05
2.42676e-05
2.40695e-05
2.38852e-05
2.37196e-05
2.35687e-05
2.34382e-05
2.33273e-05
2.32321e-05
2.31482e-05
2.30718e-05
2.30014e-05
2.29381e-05
2.28857e-05
2.28519e-05
2.28491e-05
2.28951e-05
2.3014e-05
2.32368e-05
2.35998e-05
2.41419e-05
2.48964e-05
2.58816e-05
2.70907e-05
2.84735e-05
2.99163e-05
3.10806e-05
3.18263e-05
3.20511e-05
3.17302e-05
3.0947e-05
2.98701e-05
2.86896e-05
2.75604e-05
2.6573e-05
2.57627e-05
2.51271e-05
2.46435e-05
2.42832e-05
2.40179e-05
2.3824e-05
2.36827e-05
2.35797e-05
2.35042e-05
2.34487e-05
2.34077e-05
2.33772e-05
2.33546e-05
2.33377e-05
2.33251e-05
2.33156e-05
2.33085e-05
2.33032e-05
2.32993e-05
2.32963e-05
2.32941e-05
2.32924e-05
2.32912e-05
2.32903e-05
2.32896e-05
2.32893e-05
2.32897e-05
2.32918e-05
2.33002e-05
1.02133e-05
1.01911e-05
1.02312e-05
1.07165e-05
1.16733e-05
1.28686e-05
1.40703e-05
1.5098e-05
1.58763e-05
1.63981e-05
1.66956e-05
1.68212e-05
1.68306e-05
1.67704e-05
1.66757e-05
1.65725e-05
1.64619e-05
1.63454e-05
1.62275e-05
1.61084e-05
1.59858e-05
1.58567e-05
1.57187e-05
1.55713e-05
1.54152e-05
1.52546e-05
1.50974e-05
1.49573e-05
1.4854e-05
1.48136e-05
1.48626e-05
1.50163e-05
1.52663e-05
1.55897e-05
1.59803e-05
1.64602e-05
1.70737e-05
1.78479e-05
1.86787e-05
1.94514e-05
2.00184e-05
2.0261e-05
2.01676e-05
1.98045e-05
1.92843e-05
1.87187e-05
1.81882e-05
1.77355e-05
1.73731e-05
1.70951e-05
1.6888e-05
1.67365e-05
1.66273e-05
1.65491e-05
1.64931e-05
1.64529e-05
1.64238e-05
1.64028e-05
1.63874e-05
1.63762e-05
1.63679e-05
1.63617e-05
1.63572e-05
1.63538e-05
1.63513e-05
1.63494e-05
1.6348e-05
1.6347e-05
1.63462e-05
1.63456e-05
1.63452e-05
1.6345e-05
1.63452e-05
1.63468e-05
1.63542e-05
1.01356e-05
1.0129e-05
1.00538e-05
1.00022e-05
1.01056e-05
1.03834e-05
1.07661e-05
1.11679e-05
1.15286e-05
1.18142e-05
1.20094e-05
1.212e-05
1.21641e-05
1.21617e-05
1.21306e-05
1.20853e-05
1.20387e-05
1.19862e-05
1.19287e-05
1.18669e-05
1.18005e-05
1.1729e-05
1.16528e-05
1.15745e-05
1.14996e-05
1.14371e-05
1.14016e-05
1.14171e-05
1.15203e-05
1.17591e-05
1.21729e-05
1.27378e-05
1.33234e-05
1.37465e-05
1.38801e-05
1.37668e-05
1.35318e-05
1.33918e-05
1.34807e-05
1.38151e-05
1.42841e-05
1.46571e-05
1.48237e-05
1.47533e-05
1.4485e-05
1.41004e-05
1.3684e-05
1.32973e-05
1.29717e-05
1.27152e-05
1.2522e-05
1.23809e-05
1.22804e-05
1.22099e-05
1.21609e-05
1.21269e-05
1.21034e-05
1.20871e-05
1.20757e-05
1.20678e-05
1.20622e-05
1.20582e-05
1.20554e-05
1.20533e-05
1.20519e-05
1.20508e-05
1.20501e-05
1.20495e-05
1.20491e-05
1.20489e-05
1.20487e-05
1.20485e-05
1.20486e-05
1.20495e-05
1.20543e-05
1.01003e-05
1.00821e-05
1.0051e-05
9.98952e-06
9.92125e-06
9.88454e-06
9.8955e-06
9.94541e-06
1.00139e-05
1.00811e-05
1.01339e-05
1.01699e-05
1.01916e-05
1.02041e-05
1.02101e-05
1.02121e-05
1.02135e-05
1.02142e-05
1.02122e-05
1.02071e-05
1.01996e-05
1.01911e-05
1.0185e-05
1.0189e-05
1.0219e-05
1.02924e-05
1.04429e-05
1.07274e-05
1.12385e-05
1.21066e-05
1.34404e-05
1.51365e-05
1.67855e-05
1.7973e-05
1.79909e-05
1.72154e-05
1.62845e-05
1.53081e-05
1.44185e-05
1.37739e-05
1.34431e-05
1.33004e-05
1.31835e-05
1.29968e-05
1.27004e-05
1.23169e-05
1.19024e-05
1.15128e-05
1.11826e-05
1.09232e-05
1.07307e-05
1.05937e-05
1.04991e-05
1.04356e-05
1.0394e-05
1.03672e-05
1.03504e-05
1.03399e-05
1.03336e-05
1.03298e-05
1.03276e-05
1.03264e-05
1.03258e-05
1.03254e-05
1.03253e-05
1.03253e-05
1.03254e-05
1.03254e-05
1.03255e-05
1.03256e-05
1.03256e-05
1.03257e-05
1.03258e-05
1.03262e-05
1.03281e-05
1.00846e-05
1.00475e-05
1.00202e-05
9.99013e-06
9.94904e-06
9.89937e-06
9.84985e-06
9.80815e-06
9.77774e-06
9.7584e-06
9.74875e-06
9.74748e-06
9.75364e-06
9.76566e-06
9.78249e-06
9.8026e-06
9.8245e-06
9.84659e-06
9.86738e-06
9.8868e-06
9.9065e-06
9.93016e-06
9.96487e-06
1.00257e-05
1.01363e-05
1.03364e-05
1.06948e-05
1.13339e-05
1.24653e-05
1.44043e-05
1.74059e-05
2.11892e-05
2.49766e-05
2.9497e-05
2.92969e-05
2.54533e-05
2.34424e-05
2.28909e-05
2.21259e-05
2.08437e-05
1.9036e-05
1.71388e-05
1.55567e-05
1.44267e-05
1.35466e-05
1.27979e-05
1.21394e-05
1.15749e-05
1.11159e-05
1.0762e-05
1.05011e-05
1.03156e-05
1.01873e-05
1.01007e-05
1.00445e-05
1.0009e-05
9.98723e-06
9.97429e-06
9.96697e-06
9.9631e-06
9.96129e-06
9.96065e-06
9.96064e-06
9.96093e-06
9.96135e-06
9.96178e-06
9.96218e-06
9.96252e-06
9.96281e-06
9.96304e-06
9.96323e-06
9.96338e-06
9.9635e-06
9.96363e-06
9.96398e-06
1.00776e-05
1.00282e-05
9.99044e-06
9.96164e-06
9.93681e-06
9.91209e-06
9.88627e-06
9.86052e-06
9.83727e-06
9.81906e-06
9.80773e-06
9.80411e-06
9.80804e-06
9.81792e-06
9.83369e-06
9.85318e-06
9.87398e-06
9.89438e-06
9.91398e-06
9.93384e-06
9.95706e-06
9.99002e-06
1.00457e-05
1.01488e-05
1.03365e-05
1.06766e-05
1.12913e-05
1.2409e-05
1.44446e-05
1.80194e-05
2.35371e-05
3.07438e-05
3.87955e-05
6.08603e-05
6.2875e-05
2.99045e-05
1.92507e-05
2.19597e-05
3.43696e-05
5.49712e-05
3.68264e-05
2.9916e-05
2.40288e-05
1.9768e-05
1.70496e-05
1.51882e-05
1.38208e-05
1.27764e-05
1.19772e-05
1.13775e-05
1.09379e-05
1.06229e-05
1.0402e-05
1.02501e-05
1.01477e-05
1.00802e-05
1.00364e-05
1.00086e-05
9.99154e-06
9.98133e-06
9.97541e-06
9.97213e-06
9.97043e-06
9.96964e-06
9.96935e-06
9.96934e-06
9.96944e-06
9.9696e-06
9.96976e-06
9.9699e-06
9.97003e-06
9.97013e-06
9.97021e-06
9.97025e-06
9.97021e-06
1.00743e-05
1.00185e-05
9.97254e-06
9.93694e-06
9.9108e-06
9.89247e-06
9.88016e-06
9.8725e-06
9.86875e-06
9.86874e-06
9.87246e-06
9.87975e-06
9.89014e-06
9.90283e-06
9.91699e-06
9.93188e-06
9.94674e-06
9.96112e-06
9.97562e-06
9.99254e-06
1.00169e-05
1.0059e-05
1.01377e-05
1.02863e-05
1.05622e-05
1.10687e-05
1.20006e-05
1.37387e-05
1.69857e-05
2.27258e-05
3.12939e-05
4.48727e-05
6.11127e-05
2.73771e-05
1e-06
1e-06
1e-06
1e-06
1e-06
1e-06
3.55908e-05
7.77346e-05
3.61303e-05
2.70539e-05
2.18033e-05
1.84383e-05
1.60917e-05
1.43823e-05
1.31173e-05
1.21865e-05
1.15114e-05
1.10294e-05
1.06907e-05
1.04564e-05
1.02966e-05
1.01898e-05
1.01194e-05
1.00736e-05
1.00443e-05
1.00258e-05
1.00144e-05
1.00074e-05
1.00033e-05
1.0001e-05
9.99966e-06
9.99896e-06
9.9986e-06
9.99845e-06
9.99839e-06
9.99839e-06
9.99841e-06
9.99844e-06
9.99847e-06
9.99848e-06
9.9984e-06
1.00727e-05
1.00137e-05
9.96316e-06
9.92219e-06
9.89155e-06
9.8713e-06
9.86082e-06
9.85886e-06
9.86381e-06
9.87401e-06
9.88779e-06
9.90359e-06
9.92011e-06
9.93633e-06
9.95155e-06
9.96542e-06
9.978e-06
9.98985e-06
1.00025e-05
1.00195e-05
1.00479e-05
1.01018e-05
1.02065e-05
1.04066e-05
1.07807e-05
1.1475e-05
1.27758e-05
1.52564e-05
1.99515e-05
2.80978e-05
3.90762e-05
6.68302e-05
1.78559e-05
1e-06
1e-06
1e-06
1e-06
1e-06
1e-06
1e-06
1e-06
3.09855e-05
3.58626e-05
3.08359e-05
2.52859e-05
2.10909e-05
1.80219e-05
1.57614e-05
1.40936e-05
1.28736e-05
1.19931e-05
1.13664e-05
1.09263e-05
1.06214e-05
1.04128e-05
1.0272e-05
1.01781e-05
1.01164e-05
1.00764e-05
1.00508e-05
1.00346e-05
1.00246e-05
1.00184e-05
1.00147e-05
1.00125e-05
1.00113e-05
1.00105e-05
1.00101e-05
1.00099e-05
1.00098e-05
1.00098e-05
1.00097e-05
1.00097e-05
1.00097e-05
1.00096e-05
1.00719e-05
1.00113e-05
9.95832e-06
9.91425e-06
9.8803e-06
9.85729e-06
9.84536e-06
9.84377e-06
9.85093e-06
9.86471e-06
9.88272e-06
9.90268e-06
9.92268e-06
9.94138e-06
9.95801e-06
9.97238e-06
9.98483e-06
9.99642e-06
1.00094e-05
1.00282e-05
1.00622e-05
1.01288e-05
1.02598e-05
1.05113e-05
1.09847e-05
1.18734e-05
1.35664e-05
1.68444e-05
2.30614e-05
3.33728e-05
4.44324e-05
2.98178e-05
1e-06
1e-06
1e-06
1e-06
1e-06
1e-06
1e-06
1e-06
1e-06
1e-06
4.47909e-05
3.39922e-05
2.72802e-05
2.25757e-05
1.91502e-05
1.65989e-05
1.47035e-05
1.33128e-05
1.23073e-05
1.15901e-05
1.10849e-05
1.07333e-05
1.04915e-05
1.0327e-05
1.02166e-05
1.01433e-05
1.00954e-05
1.00644e-05
1.00447e-05
1.00323e-05
1.00246e-05
1.00199e-05
1.0017e-05
1.00153e-05
1.00143e-05
1.00138e-05
1.00134e-05
1.00132e-05
1.00131e-05
1.00131e-05
1.00131e-05
1.0013e-05
1.0013e-05
1.00714e-05
1.00101e-05
9.95582e-06
9.91009e-06
9.87424e-06
9.84937e-06
9.83598e-06
9.83364e-06
9.84094e-06
9.85563e-06
9.87509e-06
9.8967e-06
9.91826e-06
9.93821e-06
9.95571e-06
9.97059e-06
9.98334e-06
9.99523e-06
1.00089e-05
1.00298e-05
1.00686e-05
1.0146e-05
1.02992e-05
1.0595e-05
1.11564e-05
1.22222e-05
1.42724e-05
1.82525e-05
2.5715e-05
3.70982e-05
6.38093e-05
1.1764e-05
1e-06
1e-06
1e-06
1e-06
1e-06
1e-06
1e-06
1e-06
1e-06
1e-06
1.83797e-05
2.63064e-05
2.54706e-05
2.2251e-05
1.92617e-05
1.68125e-05
1.49147e-05
1.34926e-05
1.24512e-05
1.17016e-05
1.11695e-05
1.07962e-05
1.05374e-05
1.03601e-05
1.024e-05
1.01598e-05
1.01068e-05
1.00723e-05
1.00502e-05
1.00361e-05
1.00274e-05
1.0022e-05
1.00187e-05
1.00167e-05
1.00155e-05
1.00148e-05
1.00144e-05
1.00142e-05
1.00141e-05
1.0014e-05
1.0014e-05
1.00139e-05
1.00139e-05
1.00712e-05
1.00094e-05
9.9546e-06
9.90806e-06
9.87126e-06
9.84543e-06
9.83119e-06
9.82827e-06
9.83534e-06
9.85019e-06
9.87009e-06
9.89229e-06
9.91444e-06
9.9349e-06
9.95277e-06
9.96788e-06
9.98079e-06
9.99288e-06
1.0007e-05
1.00291e-05
1.0071e-05
1.01552e-05
1.03228e-05
1.06484e-05
1.12718e-05
1.24637e-05
1.47544e-05
1.91615e-05
2.74121e-05
3.8967e-05
4.87795e-05
1e-06
1e-06
1e-06
1e-06
1e-06
1e-06
1e-06
1e-06
1e-06
1e-06
1e-06
7.49192e-06
5.61521e-05
2.58689e-05
2.1662e-05
1.89408e-05
1.66834e-05
1.48812e-05
1.3502e-05
1.24778e-05
1.17327e-05
1.11989e-05
1.08215e-05
1.05579e-05
1.03759e-05
1.02519e-05
1.01684e-05
1.0113e-05
1.00766e-05
1.00532e-05
1.00382e-05
1.00288e-05
1.00229e-05
1.00194e-05
1.00172e-05
1.00159e-05
1.00152e-05
1.00147e-05
1.00145e-05
1.00143e-05
1.00142e-05
1.00142e-05
1.00142e-05
1.00141e-05
1.00712e-05
1.00093e-05
9.95423e-06
9.90745e-06
9.87036e-06
9.84424e-06
9.82974e-06
9.82662e-06
9.83361e-06
9.84849e-06
9.86849e-06
9.89084e-06
9.91315e-06
9.93373e-06
9.95168e-06
9.96683e-06
9.97976e-06
9.99187e-06
1.00061e-05
1.00286e-05
1.00714e-05
1.01577e-05
1.03298e-05
1.06649e-05
1.13077e-05
1.2536e-05
1.48816e-05
1.93382e-05
2.75358e-05
3.74874e-05
4.38786e-05
1e-06
1e-06
1e-06
1e-06
1e-06
1e-06
1e-06
1e-06
1e-06
1e-06
1e-06
1e-06
4.93263e-05
2.38367e-05
2.07483e-05
1.85073e-05
1.64659e-05
1.47692e-05
1.34447e-05
1.24504e-05
1.17218e-05
1.11967e-05
1.08235e-05
1.05615e-05
1.03798e-05
1.02554e-05
1.01713e-05
1.01152e-05
1.00783e-05
1.00544e-05
1.00391e-05
1.00294e-05
1.00234e-05
1.00197e-05
1.00174e-05
1.00161e-05
1.00153e-05
1.00148e-05
1.00145e-05
1.00144e-05
1.00143e-05
1.00142e-05
1.00142e-05
1.00141e-05
1.00712e-05
1.00094e-05
9.9546e-06
9.90806e-06
9.87127e-06
9.84545e-06
9.83124e-06
9.82836e-06
9.83548e-06
9.85038e-06
9.87032e-06
9.89254e-06
9.9147e-06
9.93513e-06
9.95296e-06
9.96802e-06
9.98087e-06
9.9929e-06
1.0007e-05
1.00291e-05
1.00709e-05
1.01548e-05
1.03218e-05
1.06461e-05
1.12663e-05
1.24507e-05
1.47236e-05
1.91002e-05
2.73138e-05
3.88261e-05
4.8821e-05
1e-06
1e-06
1e-06
1e-06
1e-06
1e-06
1e-06
1e-06
1e-06
1e-06
1e-06
7.58941e-06
5.59377e-05
2.54091e-05
2.13357e-05
1.86692e-05
1.64804e-05
1.47403e-05
1.34098e-05
1.24207e-05
1.16994e-05
1.1181e-05
1.0813e-05
1.05548e-05
1.03757e-05
1.0253e-05
1.01699e-05
1.01145e-05
1.00779e-05
1.00542e-05
1.0039e-05
1.00294e-05
1.00234e-05
1.00197e-05
1.00174e-05
1.00161e-05
1.00153e-05
1.00148e-05
1.00145e-05
1.00144e-05
1.00143e-05
1.00142e-05
1.00142e-05
1.00141e-05
1.00714e-05
1.00101e-05
9.95582e-06
9.91009e-06
9.87425e-06
9.84941e-06
9.83607e-06
9.8338e-06
9.84119e-06
9.85601e-06
9.87558e-06
9.89729e-06
9.91891e-06
9.93886e-06
9.95631e-06
9.97111e-06
9.98375e-06
9.99552e-06
1.00091e-05
1.00299e-05
1.00686e-05
1.01455e-05
1.02974e-05
1.05902e-05
1.11453e-05
1.21974e-05
1.42173e-05
1.81374e-05
2.54971e-05
3.67312e-05
6.37903e-05
1.18695e-05
1e-06
1e-06
1e-06
1e-06
1e-06
1e-06
1e-06
1e-06
1e-06
1e-06
1.83172e-05
2.55788e-05
2.4759e-05
2.17042e-05
1.8845e-05
1.65167e-05
1.47167e-05
1.33674e-05
1.23773e-05
1.16617e-05
1.11508e-05
1.07901e-05
1.0538e-05
1.03637e-05
1.02446e-05
1.01643e-05
1.01107e-05
1.00754e-05
1.00526e-05
1.00379e-05
1.00286e-05
1.00229e-05
1.00193e-05
1.00171e-05
1.00158e-05
1.00151e-05
1.00146e-05
1.00143e-05
1.00142e-05
1.00141e-05
1.00141e-05
1.0014e-05
1.00139e-05
1.00719e-05
1.00113e-05
9.95832e-06
9.91425e-06
9.88031e-06
9.85733e-06
9.84547e-06
9.84402e-06
9.85141e-06
9.86549e-06
9.88385e-06
9.90414e-06
9.92442e-06
9.94327e-06
9.95993e-06
9.9742e-06
9.98646e-06
9.99783e-06
1.00105e-05
1.00292e-05
1.00629e-05
1.01287e-05
1.02578e-05
1.05049e-05
1.09693e-05
1.18401e-05
1.34965e-05
1.66976e-05
2.27593e-05
3.28234e-05
4.3883e-05
2.98829e-05
1e-06
1e-06
1e-06
1e-06
1e-06
1e-06
1e-06
1e-06
1e-06
1e-06
4.41493e-05
3.27407e-05
2.64403e-05
2.20084e-05
1.87685e-05
1.63497e-05
1.45492e-05
1.3225e-05
1.2264e-05
1.15749e-05
1.10859e-05
1.07426e-05
1.05038e-05
1.03395e-05
1.02278e-05
1.01526e-05
1.01027e-05
1.007e-05
1.00488e-05
1.00352e-05
1.00267e-05
1.00214e-05
1.00181e-05
1.00161e-05
1.00149e-05
1.00142e-05
1.00138e-05
1.00136e-05
1.00135e-05
1.00134e-05
1.00133e-05
1.00133e-05
1.00132e-05
1.00727e-05
1.00137e-05
9.96315e-06
9.92219e-06
9.89157e-06
9.87141e-06
9.86114e-06
9.85959e-06
9.8652e-06
9.87627e-06
9.89104e-06
9.90782e-06
9.92514e-06
9.94187e-06
9.95727e-06
9.97098e-06
9.98313e-06
9.99441e-06
1.00065e-05
1.00228e-05
1.00506e-05
1.01034e-05
1.02059e-05
1.0401e-05
1.07652e-05
1.144e-05
1.27025e-05
1.51041e-05
1.96411e-05
2.75225e-05
3.82374e-05
6.67015e-05
1.81935e-05
1e-06
1e-06
1e-06
1e-06
1e-06
1e-06
1e-06
1e-06
3.03751e-05
3.52419e-05
3.00879e-05
2.47987e-05
2.08199e-05
1.78805e-05
1.5697e-05
1.40763e-05
1.28852e-05
1.20209e-05
1.14017e-05
1.0963e-05
1.06557e-05
1.04427e-05
1.02968e-05
1.01979e-05
1.01317e-05
1.00879e-05
1.00593e-05
1.00409e-05
1.00291e-05
1.00218e-05
1.00172e-05
1.00144e-05
1.00128e-05
1.00118e-05
1.00112e-05
1.00109e-05
1.00107e-05
1.00106e-05
1.00105e-05
1.00105e-05
1.00105e-05
1.00104e-05
1.00743e-05
1.00185e-05
9.97254e-06
9.93697e-06
9.91099e-06
9.89307e-06
9.88159e-06
9.87525e-06
9.87329e-06
9.87543e-06
9.8814e-06
9.89075e-06
9.90276e-06
9.91644e-06
9.93085e-06
9.9453e-06
9.95916e-06
9.97219e-06
9.98522e-06
1.00007e-05
1.00237e-05
1.00642e-05
1.01404e-05
1.02844e-05
1.05511e-05
1.10398e-05
1.19374e-05
1.36076e-05
1.67213e-05
2.22342e-05
3.05148e-05
4.39904e-05
6.13744e-05
2.78073e-05
1e-06
1e-06
1e-06
1e-06
1e-06
1e-06
3.51448e-05
7.59889e-05
3.5462e-05
2.68899e-05
2.18715e-05
1.8597e-05
1.62711e-05
1.45529e-05
1.32692e-05
1.23178e-05
1.16225e-05
1.11219e-05
1.07664e-05
1.05171e-05
1.03443e-05
1.02267e-05
1.01473e-05
1.00945e-05
1.00597e-05
1.00372e-05
1.00228e-05
1.00137e-05
1.00081e-05
1.00047e-05
1.00027e-05
1.00015e-05
1.00009e-05
1.00005e-05
1.00003e-05
1.00002e-05
1.00002e-05
1.00002e-05
1.00002e-05
1.00002e-05
1.00001e-05
1.00776e-05
1.00281e-05
9.99047e-06
9.96193e-06
9.9379e-06
9.91476e-06
9.89139e-06
9.86871e-06
9.84879e-06
9.83379e-06
9.8253e-06
9.82398e-06
9.82955e-06
9.84024e-06
9.85594e-06
9.87448e-06
9.89356e-06
9.91169e-06
9.92879e-06
9.9462e-06
9.96718e-06
9.99802e-06
1.00512e-05
1.01507e-05
1.03315e-05
1.06584e-05
1.12479e-05
1.23172e-05
1.42615e-05
1.7682e-05
2.3012e-05
3.00519e-05
3.8001e-05
5.92784e-05
6.38309e-05
3.04575e-05
1.95007e-05
2.20567e-05
3.41505e-05
5.41683e-05
3.6092e-05
2.99531e-05
2.42775e-05
2.02057e-05
1.75106e-05
1.56088e-05
1.41821e-05
1.30769e-05
1.22224e-05
1.15746e-05
1.10942e-05
1.07453e-05
1.04965e-05
1.03221e-05
1.02018e-05
1.01201e-05
1.00655e-05
1.00295e-05
1.00064e-05
9.99172e-06
9.98266e-06
9.97717e-06
9.97394e-06
9.97211e-06
9.97113e-06
9.97065e-06
9.97045e-06
9.9704e-06
9.97043e-06
9.97049e-06
9.97056e-06
9.97062e-06
9.97067e-06
9.97069e-06
9.97056e-06
1.00846e-05
1.00475e-05
1.00204e-05
9.99152e-06
9.95309e-06
9.90741e-06
9.86213e-06
9.82356e-06
9.79437e-06
9.77437e-06
9.76286e-06
9.75937e-06
9.76349e-06
9.77383e-06
9.78922e-06
9.80787e-06
9.82809e-06
9.84808e-06
9.86662e-06
9.88393e-06
9.90188e-06
9.92421e-06
9.9578e-06
1.00172e-05
1.01248e-05
1.03185e-05
1.06637e-05
1.12767e-05
1.23599e-05
1.42194e-05
1.71244e-05
2.08456e-05
2.46165e-05
2.92728e-05
2.98074e-05
2.63367e-05
2.39507e-05
2.31441e-05
2.2365e-05
2.10983e-05
1.93199e-05
1.7527e-05
1.59948e-05
1.48594e-05
1.39331e-05
1.31281e-05
1.24158e-05
1.18029e-05
1.13007e-05
1.09083e-05
1.06135e-05
1.0399e-05
1.02467e-05
1.01405e-05
1.00689e-05
1.00216e-05
9.99089e-06
9.97133e-06
9.9592e-06
9.95192e-06
9.94773e-06
9.94546e-06
9.94435e-06
9.94391e-06
9.94384e-06
9.94396e-06
9.94416e-06
9.94438e-06
9.94459e-06
9.94477e-06
9.94492e-06
9.94505e-06
9.94514e-06
9.94516e-06
9.94493e-06
1.01002e-05
1.00819e-05
1.0052e-05
9.99399e-06
9.93148e-06
9.90012e-06
9.91257e-06
9.95814e-06
1.00167e-05
1.00705e-05
1.01088e-05
1.01316e-05
1.01429e-05
1.0148e-05
1.01493e-05
1.01486e-05
1.01485e-05
1.01483e-05
1.01457e-05
1.01407e-05
1.01338e-05
1.01265e-05
1.01224e-05
1.01285e-05
1.01605e-05
1.02348e-05
1.03835e-05
1.06613e-05
1.11575e-05
1.20011e-05
1.33103e-05
1.50131e-05
1.67218e-05
1.80518e-05
1.83543e-05
1.77324e-05
1.68015e-05
1.57704e-05
1.48246e-05
1.41384e-05
1.37639e-05
1.3573e-05
1.34031e-05
1.3164e-05
1.28238e-05
1.24073e-05
1.19679e-05
1.15577e-05
1.12083e-05
1.09303e-05
1.07204e-05
1.05678e-05
1.04601e-05
1.03859e-05
1.03359e-05
1.03028e-05
1.02812e-05
1.02674e-05
1.02587e-05
1.02533e-05
1.025e-05
1.02481e-05
1.0247e-05
1.02465e-05
1.02462e-05
1.02461e-05
1.02461e-05
1.02462e-05
1.02463e-05
1.02463e-05
1.02464e-05
1.02464e-05
1.02465e-05
1.02465e-05
1.02464e-05
1.01353e-05
1.01288e-05
1.00567e-05
1.00126e-05
1.01237e-05
1.04039e-05
1.07792e-05
1.11632e-05
1.14987e-05
1.17561e-05
1.19242e-05
1.2012e-05
1.20387e-05
1.20243e-05
1.19858e-05
1.19365e-05
1.18881e-05
1.18352e-05
1.17784e-05
1.1718e-05
1.16537e-05
1.15848e-05
1.15116e-05
1.14367e-05
1.13654e-05
1.13063e-05
1.12737e-05
1.12909e-05
1.13941e-05
1.16319e-05
1.20488e-05
1.26337e-05
1.3268e-05
1.37706e-05
1.40043e-05
1.39558e-05
1.37356e-05
1.35681e-05
1.36118e-05
1.38965e-05
1.43133e-05
1.46372e-05
1.47652e-05
1.467e-05
1.43894e-05
1.40003e-05
1.35816e-05
1.31915e-05
1.28604e-05
1.25969e-05
1.23964e-05
1.22486e-05
1.21422e-05
1.2067e-05
1.20144e-05
1.19778e-05
1.19524e-05
1.19348e-05
1.19227e-05
1.19142e-05
1.19083e-05
1.19042e-05
1.19013e-05
1.18993e-05
1.18978e-05
1.18968e-05
1.18961e-05
1.18956e-05
1.18952e-05
1.1895e-05
1.18948e-05
1.18947e-05
1.18947e-05
1.18948e-05
1.18957e-05
1.02126e-05
1.01913e-05
1.02386e-05
1.07356e-05
1.17012e-05
1.2894e-05
1.40783e-05
1.5076e-05
1.58179e-05
1.6304e-05
1.65711e-05
1.66739e-05
1.66678e-05
1.65982e-05
1.64985e-05
1.63931e-05
1.62818e-05
1.61656e-05
1.60485e-05
1.59306e-05
1.58092e-05
1.56813e-05
1.55444e-05
1.5398e-05
1.52426e-05
1.50824e-05
1.49251e-05
1.47842e-05
1.46797e-05
1.46381e-05
1.4688e-05
1.48484e-05
1.51147e-05
1.54634e-05
1.58812e-05
1.63775e-05
1.6988e-05
1.77359e-05
1.85286e-05
1.92619e-05
1.97987e-05
2.00277e-05
1.99381e-05
1.95907e-05
1.90898e-05
1.85407e-05
1.80207e-05
1.75727e-05
1.72109e-05
1.69314e-05
1.67218e-05
1.65679e-05
1.64565e-05
1.63765e-05
1.63192e-05
1.6278e-05
1.62484e-05
1.6227e-05
1.62115e-05
1.62002e-05
1.61919e-05
1.61858e-05
1.61813e-05
1.6178e-05
1.61755e-05
1.61737e-05
1.61723e-05
1.61713e-05
1.61706e-05
1.61701e-05
1.61697e-05
1.61695e-05
1.61696e-05
1.61704e-05
1.61737e-05
1.03985e-05
1.06771e-05
1.18995e-05
1.42608e-05
1.71547e-05
1.98015e-05
2.18775e-05
2.32765e-05
2.40636e-05
2.43943e-05
2.44328e-05
2.43124e-05
2.41248e-05
2.39247e-05
2.37401e-05
2.3575e-05
2.34246e-05
2.32946e-05
2.3184e-05
2.30888e-05
2.30045e-05
2.29273e-05
2.28557e-05
2.27906e-05
2.27358e-05
2.26988e-05
2.26917e-05
2.27323e-05
2.28445e-05
2.30593e-05
2.34135e-05
2.39465e-05
2.46919e-05
2.56674e-05
2.68636e-05
2.82275e-05
2.96451e-05
3.07801e-05
3.15049e-05
3.17262e-05
3.14227e-05
3.06738e-05
2.96382e-05
2.84955e-05
2.73942e-05
2.64239e-05
2.56224e-05
2.49903e-05
2.45076e-05
2.41468e-05
2.38808e-05
2.3686e-05
2.35441e-05
2.34406e-05
2.33648e-05
2.33091e-05
2.32681e-05
2.32376e-05
2.3215e-05
2.31982e-05
2.31857e-05
2.31763e-05
2.31693e-05
2.3164e-05
2.31601e-05
2.31572e-05
2.3155e-05
2.31534e-05
2.31521e-05
2.31512e-05
2.31506e-05
2.31504e-05
2.3151e-05
2.31536e-05
2.31617e-05
1.11715e-05
1.36995e-05
1.87028e-05
2.42659e-05
2.87362e-05
3.16378e-05
3.30378e-05
3.33471e-05
3.30429e-05
3.24863e-05
3.18897e-05
3.13577e-05
3.09296e-05
3.06093e-05
3.03835e-05
3.02343e-05
3.01515e-05
3.01272e-05
3.0155e-05
3.02321e-05
3.03592e-05
3.05418e-05
3.07911e-05
3.11245e-05
3.15663e-05
3.21485e-05
3.29118e-05
3.39051e-05
3.51843e-05
3.68079e-05
3.88283e-05
4.12738e-05
4.41193e-05
4.72414e-05
5.0399e-05
5.31691e-05
5.48149e-05
5.50012e-05
5.37663e-05
5.1394e-05
4.83157e-05
4.50084e-05
4.18651e-05
3.91221e-05
3.68583e-05
3.50612e-05
3.36736e-05
3.26229e-05
3.18377e-05
3.12557e-05
3.08264e-05
3.05106e-05
3.02784e-05
3.01077e-05
2.9982e-05
2.98893e-05
2.9821e-05
2.97706e-05
2.97334e-05
2.9706e-05
2.96858e-05
2.9671e-05
2.96601e-05
2.96521e-05
2.96463e-05
2.9642e-05
2.96389e-05
2.96366e-05
2.96349e-05
2.96338e-05
2.96331e-05
2.96332e-05
2.96349e-05
2.96404e-05
2.96545e-05
)
;

boundaryField
{
    ibCylinder
    {
        type            immersedBoundaryNutWallFunction;
        patchType       immersedBoundary;
        blending        stepwise;
        value           nonuniform List<scalar> 0();
    }
    in
    {
        type            zeroGradient;
    }
    out
    {
        type            zeroGradient;
    }
    top
    {
        type            zeroGradient;
    }
    bottom
    {
        type            zeroGradient;
    }
    frontAndBack
    {
        type            empty;
    }
}


// ************************************************************************* //
