/*--------------------------------*- C++ -*----------------------------------*\
| =========                 |                                                 |
| \\      /  F ield         | OpenFOAM: The Open Source CFD Toolbox           |
|  \\    /   O peration     | Version:  2206                                  |
|   \\  /    A nd           | Website:  www.openfoam.com                      |
|    \\/     M anipulation  |                                                 |
\*---------------------------------------------------------------------------*/
FoamFile
{
    version     2.0;
    format      ascii;
    arch        "LSB;label=32;scalar=64";
    class       volScalarField;
    location    "0.5";
    object      p;
}
// * * * * * * * * * * * * * * * * * * * * * * * * * * * * * * * * * * * * * //

dimensions      [0 2 -2 0 0 0 0];

internalField   nonuniform List<scalar> 
1875
(
2.89897
2.50935
2.25843
2.16081
2.10127
2.05462
2.02104
1.99779
1.98067
1.96705
1.95563
1.94566
1.93664
1.92821
1.92007
1.91183
1.90315
1.89383
1.88367
1.87241
1.85978
1.84544
1.829
1.80992
1.78749
1.76078
1.72862
1.68955
1.6418
1.58337
1.5122
1.42647
1.32533
1.20969
1.08268
0.947941
0.810851
0.681199
0.566576
0.469929
0.391724
0.331034
0.285172
0.251053
0.2261
0.208143
0.195376
0.186314
0.179757
0.174751
0.170576
0.166712
0.162802
0.15862
0.154037
0.148998
0.143493
0.13754
0.131181
0.124461
0.117427
0.110125
0.102598
0.0948826
0.0870126
0.0790156
0.070915
0.0627304
0.0544795
0.0461757
0.037831
0.0294546
0.0210552
0.0126393
0.0042135
2.52365
2.36808
2.23949
2.16232
2.10938
2.06654
2.03278
2.00796
1.98883
1.97323
1.96014
1.94883
1.93879
1.92958
1.92083
1.91218
1.90316
1.89353
1.88311
1.87162
1.85874
1.84413
1.82738
1.80797
1.78517
1.75805
1.72542
1.68578
1.63732
1.57794
1.50547
1.41796
1.31435
1.19585
1.06589
0.929062
0.791162
0.663996
0.554197
0.463664
0.391821
0.33679
0.294329
0.261224
0.235968
0.217128
0.203203
0.192933
0.185249
0.179255
0.174241
0.169676
0.165191
0.160537
0.15557
0.150221
0.144464
0.13831
0.131788
0.124939
0.117802
0.110419
0.102828
0.0950618
0.0871516
0.079123
0.0709978
0.0627943
0.0545281
0.0462123
0.0378579
0.0294742
0.0210685
0.0126473
0.00421573
2.34661
2.29625
2.22579
2.16728
2.11992
2.07926
2.0462
2.01982
1.99855
1.98114
1.96657
1.95398
1.94286
1.93279
1.92341
1.91431
1.90501
1.89518
1.88466
1.87318
1.86041
1.846
1.82955
1.81048
1.78807
1.76135
1.72902
1.6894
1.64039
1.57951
1.50402
1.41137
1.29991
1.17081
1.02934
0.881129
0.735808
0.605961
0.499271
0.417639
0.359899
0.319841
0.289105
0.263674
0.242604
0.225767
0.212395
0.201788
0.193281
0.186275
0.180232
0.174706
0.169359
0.163954
0.158351
0.152474
0.146277
0.139759
0.132942
0.125854
0.118526
0.11099
0.103277
0.0954141
0.087427
0.0793375
0.0711643
0.0629228
0.0546267
0.0462871
0.0379135
0.0295139
0.0210951
0.0126627
0.00422012
2.26717
2.2463
2.20141
2.15728
2.11937
2.08605
2.05665
2.03034
2.00896
1.99108
1.97521
1.96132
1.9492
1.9384
1.9285
1.91899
1.90955
1.8998
1.88951
1.87846
1.86638
1.8529
1.8377
1.82015
1.79932
1.77425
1.74355
1.70514
1.65633
1.59376
1.51352
1.41145
1.28408
1.13246
0.964831
0.785305
0.621621
0.49048
0.387395
0.317279
0.285029
0.273263
0.264225
0.254361
0.243633
0.232794
0.222402
0.212813
0.20404
0.196094
0.188845
0.182074
0.175549
0.169058
0.162512
0.155865
0.149013
0.141948
0.134688
0.127241
0.119624
0.111858
0.10396
0.0959507
0.087847
0.0796652
0.0714189
0.0631197
0.0547775
0.0464012
0.037998
0.0295743
0.0211352
0.0126855
0.00422701
2.21463
2.20384
2.17638
2.14434
2.11445
2.08704
2.06185
2.03856
2.01872
2.00111
1.98456
1.9703
1.95782
1.94641
1.93583
1.92578
1.91615
1.90667
1.8969
1.88666
1.8757
1.86366
1.85025
1.83526
1.81732
1.79498
1.76705
1.73103
1.68332
1.61917
1.53259
1.41619
1.26233
1.07416
0.861231
0.631918
0.443475
0.313091
0.218146
0.162341
0.156971
0.181716
0.207977
0.226609
0.235464
0.237043
0.233447
0.226497
0.217978
0.209018
0.200243
0.191842
0.183794
0.175796
0.167967
0.160321
0.152595
0.1448
0.13696
0.129047
0.121057
0.11299
0.104852
0.0966495
0.0883934
0.0800912
0.0717496
0.0633749
0.0549729
0.046549
0.0381075
0.0296526
0.0211872
0.0127151
0.00423653
2.17831
2.17213
2.1547
2.13184
2.10846
2.08581
2.06424
2.04378
2.02504
2.00816
1.99265
1.97897
1.9663
1.95435
1.94346
1.93338
1.92394
1.91483
1.90576
1.89656
1.88713
1.87729
1.86653
1.8544
1.84001
1.82191
1.79843
1.7667
1.72221
1.65825
1.56556
1.42883
1.24275
1.01917
0.797688
0.482537
0.231031
0.100498
0.0128074
-0.02556
0.00492249
0.0652439
0.134088
0.188559
0.219248
0.236519
0.242457
0.240008
0.232662
0.22314
0.212966
0.202825
0.192982
0.183337
0.174227
0.165498
0.156719
0.148051
0.139532
0.131082
0.122675
0.114275
0.105867
0.0974481
0.0890197
0.080581
0.0721308
0.0636696
0.0551988
0.04672
0.0382345
0.0297436
0.0212481
0.0127499
0.00424822
2.15278
2.14886
2.13704
2.12027
2.10188
2.08319
2.06468
2.04672
2.02972
2.01399
1.99922
1.98555
1.97287
1.96139
1.95084
1.94084
1.93167
1.92316
1.91497
1.90705
1.89945
1.89208
1.88436
1.87579
1.86593
1.8535
1.83656
1.81186
1.77407
1.7146
1.62056
1.46679
1.27075
1.00606
0.954689
0.533292
0.08328
-0.0599865
-0.158102
-0.230636
-0.152691
-0.0494946
0.0549486
0.143136
0.199824
0.232122
0.24822
0.251495
0.246302
0.236765
0.225474
0.213715
0.202101
0.191048
0.180656
0.170615
0.160844
0.151482
0.14232
0.133281
0.124397
0.115625
0.106927
0.0982786
0.0896714
0.0810927
0.0725302
0.0639794
0.0554369
0.0469007
0.0383691
0.0298405
0.0213133
0.0127874
0.00426122
2.13438
2.13161
2.12306
2.11032
2.09556
2.07994
2.06397
2.04809
2.03269
2.018
2.00407
1.99097
1.97889
1.96763
1.95711
1.94742
1.93875
1.9309
1.92374
1.9173
1.91163
1.9067
1.90212
1.89774
1.89332
1.88773
1.87913
1.86438
1.83779
1.78937
1.70374
1.5562
1.35689
0.964238
0
0
0
0
0
0
-0.13869
-0.0800245
0.0187995
0.117485
0.190398
0.23246
0.255472
0.262821
0.259133
0.249215
0.236752
0.223632
0.210699
0.198355
0.186505
0.175255
0.164733
0.154681
0.144913
0.135402
0.126106
0.116993
0.108012
0.0991239
0.090327
0.0816001
0.072924
0.0642837
0.0556704
0.0470781
0.0385016
0.0299361
0.0213779
0.0128247
0.00427464
2.12103
2.11891
2.11233
2.10225
2.09011
2.0768
2.06279
2.04854
2.03443
2.02071
2.00754
1.99505
1.98334
1.97239
1.96227
1.95306
1.94484
1.93767
1.93155
1.92654
1.92273
1.92022
1.919
1.91908
1.92032
1.92213
1.92321
1.92107
1.91076
1.88419
1.81644
1.70146
1.53897
0
0
0
0
0
0
0
0
-0.0730968
0.0520192
0.125719
0.19513
0.240834
0.264663
0.273345
0.270299
0.260138
0.246726
0.232375
0.21816
0.204597
0.191716
0.179566
0.168193
0.157404
0.147119
0.13722
0.127575
0.118175
0.108973
0.0998975
0.0909373
0.0820781
0.0732973
0.0645717
0.0558913
0.0472455
0.0386259
0.0300252
0.021438
0.0128596
0.00428763
2.11153
2.1098
2.10445
2.09609
2.08576
2.0741
2.06156
2.04854
2.03543
2.02251
2.00997
1.99796
1.98663
1.97606
1.96634
1.95754
1.94977
1.9432
1.93801
1.93427
1.93216
1.93191
1.93375
1.93791
1.94457
1.95366
1.96462
1.97589
1.98431
1.98184
1.94351
1.85245
0
0
0
0
0
0
0
0
0
0
0.115208
0.155754
0.211699
0.253786
0.275957
0.283654
0.279975
0.269091
0.254762
0.239385
0.224157
0.209628
0.195937
0.1831
0.171085
0.159761
0.149009
0.138712
0.128758
0.119104
0.109706
0.100496
0.0914196
0.0824667
0.0736089
0.0648163
0.056081
0.0473904
0.0387342
0.0301031
0.0214908
0.0128907
0.00429931
2.10517
2.10368
2.09906
2.09177
2.0826
2.07206
2.06053
2.04838
2.03597
2.02363
2.01155
1.99992
1.98889
1.97862
1.96921
1.96079
1.95344
1.94731
1.94281
1.94009
1.93934
1.94091
1.9452
1.9527
1.96387
1.97911
1.99855
2.02156
2.04689
2.06746
2.08966
2.44943
0
0
0
0
0
0
0
0
0
0
0.0888263
0.171743
0.22577
0.264987
0.286007
0.292668
0.287916
0.276018
0.26079
0.244575
0.228575
0.213339
0.199041
0.185687
0.173212
0.161491
0.150401
0.139825
0.129659
0.11983
0.11028
0.100947
0.0917769
0.082746
0.073826
0.0649893
0.056216
0.0474958
0.0388148
0.0301617
0.0215308
0.0129143
0.00430857
2.10151
2.10014
2.09592
2.08922
2.0807
2.0708
2.05985
2.04822
2.03624
2.02423
2.01245
2.00104
1.99021
1.9801
1.97089
1.96271
1.95571
1.94993
1.94578
1.94369
1.94383
1.94658
1.95247
1.96214
1.97629
1.99558
2.02055
2.05095
2.08586
2.11528
2.14416
0
0
0
0
0
0
0
0
0
0
0
0.131276
0.192259
0.238372
0.275218
0.293613
0.298931
0.293206
0.280506
0.26461
0.247804
0.231295
0.215618
0.200943
0.187268
0.174512
0.162551
0.151258
0.140514
0.130216
0.120279
0.110637
0.101228
0.0920024
0.082924
0.0739644
0.0650966
0.056299
0.0475589
0.0388619
0.0301962
0.0215544
0.0129275
0.00431327
2.10031
2.09898
2.09488
2.08836
2.08006
2.07037
2.05961
2.04815
2.03631
2.02442
2.01273
2.00141
1.99063
1.98058
1.97142
1.9633
1.9565
1.95091
1.94679
1.94489
1.94535
1.94851
1.95496
1.96538
1.98056
2.00126
2.02813
2.06103
2.099
2.13267
2.16796
0
0
0
0
0
0
0
0
0
0
0
0
0.198089
0.243065
0.279426
0.296521
0.301139
0.295
0.282031
0.265919
0.248902
0.232214
0.216386
0.201582
0.187798
0.174947
0.162905
0.151545
0.140745
0.130402
0.120429
0.110756
0.101322
0.0920775
0.0829837
0.0740109
0.0651326
0.0563275
0.0475802
0.0388776
0.0302075
0.0215621
0.0129314
0.00431435
2.1015
2.10013
2.0959
2.08921
2.08069
2.07079
2.05984
2.04821
2.03623
2.02422
2.01244
2.00103
1.9902
1.98009
1.97088
1.9627
1.95571
1.94993
1.94578
1.94368
1.94383
1.94657
1.95247
1.96214
1.97629
1.99559
2.02056
2.05098
2.08589
2.11533
2.14434
0
0
0
0
0
0
0
0
0
0
0
0.136178
0.193866
0.238664
0.274817
0.293442
0.298862
0.293141
0.280468
0.264585
0.247784
0.231279
0.215604
0.200931
0.187258
0.174503
0.162542
0.15125
0.140508
0.13021
0.120274
0.110632
0.101224
0.0919985
0.0829205
0.0739613
0.065094
0.056297
0.0475573
0.0388607
0.0301954
0.0215539
0.0129272
0.00431317
2.10515
2.10365
2.09904
2.09175
2.08258
2.07204
2.06051
2.04836
2.03595
2.02361
2.01153
1.9999
1.98887
1.9786
1.96919
1.96077
1.95342
1.9473
1.94279
1.94007
1.93933
1.9409
1.9452
1.95269
1.96388
1.97913
1.99859
2.02161
2.04695
2.06739
2.08993
2.45725
0
0
0
0
0
0
0
0
0
0
0.0894334
0.171702
0.225772
0.264805
0.285838
0.292564
0.287842
0.275963
0.260747
0.244539
0.228543
0.213311
0.199016
0.185666
0.173193
0.161475
0.150387
0.139812
0.129647
0.119819
0.110271
0.100938
0.0917692
0.082739
0.0738199
0.0649841
0.0562119
0.0474926
0.0388125
0.0301601
0.0215297
0.0129137
0.00430835
2.1115
2.10977
2.10442
2.09606
2.08572
2.07407
2.06153
2.04851
2.0354
2.02248
2.00994
1.99793
1.9866
1.97603
1.96631
1.95752
1.94974
1.94317
1.93798
1.93425
1.93214
1.93189
1.93373
1.9379
1.94458
1.95368
1.96467
1.97596
1.98439
1.98189
1.94361
1.8526
0
0
0
0
0
0
0
0
0
0
0.115061
0.155448
0.211508
0.253605
0.275813
0.283537
0.279887
0.26902
0.254702
0.239332
0.22411
0.209586
0.195901
0.183068
0.171057
0.159736
0.148987
0.138692
0.128741
0.119088
0.109692
0.100483
0.0914082
0.0824564
0.0735999
0.0648087
0.0560749
0.0473858
0.0387307
0.0301006
0.0214892
0.0128898
0.00429897
2.12098
2.11887
2.11229
2.1022
2.09007
2.07676
2.06275
2.0485
2.03439
2.02067
2.0075
1.99501
1.9833
1.97235
1.96224
1.95303
1.94481
1.93764
1.93152
1.9265
1.9227
1.92019
1.91898
1.91907
1.92033
1.92215
1.92326
1.92114
1.91089
1.88427
1.81651
1.70186
1.53885
0
0
0
0
0
0
0
0
-0.073506
0.0519639
0.125549
0.194955
0.240701
0.264513
0.273226
0.270199
0.260051
0.246649
0.232307
0.218098
0.204542
0.191668
0.179524
0.168156
0.157371
0.14709
0.137194
0.127552
0.118155
0.108955
0.099881
0.0909224
0.0820647
0.0732856
0.0645619
0.0558834
0.0472393
0.0386213
0.030022
0.0214359
0.0128584
0.00428718
2.13433
2.13156
2.12301
2.11027
2.09551
2.07989
2.06392
2.04805
2.03264
2.01795
2.00402
1.99093
1.97884
1.96759
1.95707
1.94738
1.93871
1.93086
1.9237
1.91726
1.91159
1.90666
1.9021
1.89772
1.89331
1.88774
1.87918
1.86445
1.83788
1.78953
1.70391
1.55657
1.35724
0.961615
0
0
0
0
0
0
-0.138559
-0.0803108
0.0185848
0.117413
0.190242
0.232291
0.255318
0.262691
0.259014
0.249108
0.236657
0.223547
0.210623
0.198288
0.186446
0.175203
0.164687
0.15464
0.144876
0.13537
0.126078
0.116968
0.107989
0.0991036
0.0903087
0.0815838
0.0729098
0.0642717
0.0556607
0.0470705
0.0384959
0.029932
0.0213751
0.0128231
0.00427407
2.15272
2.1488
2.13698
2.12021
2.10182
2.08313
2.06462
2.04666
2.02966
2.01393
1.99917
1.98549
1.97281
1.96134
1.95078
1.94078
1.93162
1.92311
1.91492
1.907
1.8994
1.89203
1.88432
1.87577
1.86591
1.85351
1.83659
1.81192
1.77416
1.71474
1.62093
1.46726
1.27082
1.00622
0.954331
0.531767
0.0824211
-0.0604242
-0.158469
-0.231009
-0.152882
-0.0497726
0.0546044
0.142951
0.199627
0.231923
0.248038
0.251337
0.246159
0.236638
0.22536
0.213613
0.20201
0.190968
0.180586
0.170553
0.160789
0.151433
0.142277
0.133243
0.124363
0.115595
0.1069
0.0982547
0.0896501
0.0810738
0.0725139
0.0639655
0.0554255
0.0468918
0.0383624
0.0298356
0.02131
0.0127855
0.00426056
2.17824
2.17206
2.15463
2.13177
2.1084
2.08574
2.06417
2.04372
2.02498
2.0081
1.99258
1.9789
1.96623
1.95429
1.9434
1.93332
1.92388
1.91477
1.9057
1.8965
1.88707
1.87723
1.86648
1.85436
1.83998
1.8219
1.79844
1.76674
1.72228
1.65837
1.56577
1.42912
1.24313
1.0192
0.796853
0.481691
0.230466
0.100065
0.0124172
-0.0259393
0.00458135
0.0649974
0.133745
0.188288
0.21902
0.236307
0.24226
0.239827
0.232497
0.222991
0.212833
0.202707
0.192878
0.183245
0.174146
0.165427
0.156656
0.147995
0.139482
0.131039
0.122636
0.114241
0.105836
0.097421
0.0889957
0.0805599
0.0721124
0.063654
0.055186
0.0467098
0.0382267
0.029738
0.0212442
0.0127477
0.00424744
2.21455
2.20377
2.1763
2.14426
2.11438
2.08697
2.06177
2.03848
2.01865
2.00104
1.98449
1.97023
1.95775
1.94634
1.93576
1.92572
1.91608
1.9066
1.89683
1.88659
1.87563
1.86359
1.85018
1.83521
1.81728
1.79495
1.76704
1.73104
1.68335
1.61924
1.53269
1.41635
1.26239
1.07404
0.860726
0.631413
0.443007
0.31264
0.217733
0.161971
0.156602
0.181493
0.207657
0.226311
0.235219
0.236817
0.23323
0.226297
0.217795
0.208852
0.200095
0.19171
0.183678
0.175693
0.167877
0.160241
0.152524
0.144737
0.136905
0.128999
0.121014
0.112952
0.104818
0.0966196
0.088367
0.080068
0.0717296
0.0633579
0.0549588
0.0465377
0.0380988
0.0296462
0.0211828
0.0127126
0.00423562
2.2671
2.24622
2.20133
2.1572
2.11929
2.08597
2.05657
2.03026
2.00888
1.991
1.97513
1.96125
1.94913
1.93833
1.92843
1.91892
1.90948
1.89973
1.88943
1.87839
1.8663
1.85282
1.83763
1.82009
1.79927
1.77421
1.74352
1.70513
1.65633
1.59378
1.51355
1.41148
1.28405
1.13232
0.964541
0.78493
0.621229
0.490081
0.386997
0.316913
0.284676
0.272952
0.263915
0.254068
0.243368
0.232551
0.222169
0.212598
0.203843
0.195915
0.188684
0.181931
0.175422
0.168946
0.162414
0.155778
0.148936
0.14188
0.134628
0.127188
0.119578
0.111817
0.103924
0.0959184
0.0878186
0.0796405
0.0713975
0.0631014
0.0547624
0.0463889
0.0379884
0.0295672
0.0211302
0.0126827
0.004226
2.34653
2.29617
2.22571
2.1672
2.11983
2.07918
2.04611
2.01974
1.99846
1.98105
1.96648
1.9539
1.94278
1.93272
1.92333
1.91423
1.90493
1.8951
1.88458
1.8731
1.86033
1.84592
1.82947
1.81041
1.788
1.76129
1.72897
1.68936
1.64037
1.57949
1.504
1.41133
1.29983
1.17066
1.0291
0.880823
0.73547
0.605602
0.498906
0.417283
0.359554
0.319518
0.288793
0.263375
0.242326
0.225508
0.212152
0.201563
0.193074
0.186087
0.180062
0.174555
0.169225
0.163836
0.158246
0.152382
0.146196
0.139688
0.132879
0.125799
0.118477
0.110947
0.103239
0.0953801
0.0873971
0.0793115
0.0711418
0.0629037
0.0546107
0.0462741
0.0379032
0.0295062
0.0210898
0.0126597
0.00421905
2.52356
2.36799
2.23941
2.16223
2.10929
2.06645
2.03269
2.00787
1.98875
1.97315
1.96005
1.94875
1.93871
1.9295
1.92074
1.9121
1.90308
1.89345
1.88303
1.87154
1.85865
1.84404
1.8273
1.80789
1.7851
1.75799
1.72537
1.68574
1.63728
1.5779
1.50542
1.41789
1.31424
1.19569
1.06566
0.928784
0.790853
0.663665
0.553855
0.46332
0.391484
0.336464
0.294015
0.260923
0.235686
0.216863
0.202955
0.192704
0.185038
0.179062
0.174066
0.16952
0.165052
0.160414
0.155462
0.150125
0.14438
0.138236
0.131723
0.124881
0.117752
0.110375
0.102788
0.0950266
0.0871207
0.0790961
0.0709746
0.0627745
0.0545115
0.0461987
0.0378472
0.0294661
0.0210629
0.0126441
0.00421462
2.89889
2.50927
2.25834
2.16073
2.10118
2.05453
2.02095
1.99771
1.98058
1.96696
1.95554
1.94558
1.93656
1.92812
1.91999
1.91174
1.90307
1.89375
1.88359
1.87233
1.85969
1.84536
1.82892
1.80984
1.78741
1.76072
1.72857
1.6895
1.64175
1.58332
1.51214
1.42638
1.3252
1.20951
1.08245
0.947676
0.810556
0.680882
0.566246
0.469595
0.39139
0.330711
0.284858
0.250754
0.225816
0.207878
0.195128
0.186084
0.179544
0.174557
0.1704
0.166554
0.162662
0.158495
0.153927
0.148901
0.143407
0.137465
0.131114
0.124402
0.117375
0.11008
0.102558
0.094847
0.0869812
0.0789884
0.0708914
0.0627104
0.0544625
0.0461618
0.0378199
0.0294463
0.0210494
0.012636
0.00421236
)
;

boundaryField
{
    ibCylinder
    {
        type            zeroGradientIb;
        patchType       immersedBoundary;
        setDeadValue    true;
        deadValue       0;
        value           nonuniform List<scalar> 0();
    }
    in
    {
        type            zeroGradient;
    }
    out
    {
        type            fixedValue;
        value           uniform 0;
    }
    top
    {
        type            zeroGradient;
    }
    bottom
    {
        type            zeroGradient;
    }
    frontAndBack
    {
        type            empty;
    }
}


// ************************************************************************* //
