/*--------------------------------*- C++ -*----------------------------------*\
| =========                 |                                                 |
| \\      /  F ield         | OpenFOAM: The Open Source CFD Toolbox           |
|  \\    /   O peration     | Version:  2206                                  |
|   \\  /    A nd           | Website:  www.openfoam.com                      |
|    \\/     M anipulation  |                                                 |
\*---------------------------------------------------------------------------*/
FoamFile
{
    version     2.0;
    format      ascii;
    arch        "LSB;label=32;scalar=64";
    class       volVectorField;
    location    "0.5";
    object      U;
}
// * * * * * * * * * * * * * * * * * * * * * * * * * * * * * * * * * * * * * //

dimensions      [0 1 -1 0 0 0 0];

internalField   nonuniform List<vector> 
1875
(
(0.792542 0.0207859 0)
(0.749332 0.0858822 0)
(0.64789 0.0835693 0)
(0.514873 0.0487066 0)
(0.418774 0.024648 0)
(0.355822 0.0133328 0)
(0.312125 0.00726749 0)
(0.281052 0.0038422 0)
(0.259262 0.00198815 0)
(0.244064 0.00100756 0)
(0.233509 0.000446009 0)
(0.226412 9.08626e-05 0)
(0.22199 -0.000163451 0)
(0.219706 -0.000366733 0)
(0.219177 -0.000549851 0)
(0.219889 -0.000755056 0)
(0.221752 -0.000953197 0)
(0.224737 -0.00116385 0)
(0.228811 -0.00142106 0)
(0.234058 -0.0017389 0)
(0.240649 -0.00213314 0)
(0.248837 -0.00262536 0)
(0.258966 -0.00323795 0)
(0.271461 -0.00398853 0)
(0.28681 -0.00489142 0)
(0.305542 -0.00594728 0)
(0.328192 -0.00713578 0)
(0.355239 -0.00840415 0)
(0.386998 -0.00964275 0)
(0.423443 -0.0106679 0)
(0.463984 -0.0112074 0)
(0.507172 -0.0108938 0)
(0.550554 -0.00930743 0)
(0.590241 -0.00625492 0)
(0.621907 -0.00210277 0)
(0.639334 0.00269562 0)
(0.640463 0.00732977 0)
(0.626839 0.0118053 0)
(0.597375 0.0144792 0)
(0.555704 0.0152571 0)
(0.507267 0.0144711 0)
(0.457322 0.0125679 0)
(0.410422 0.0103661 0)
(0.368912 0.00836646 0)
(0.333575 0.00662207 0)
(0.304477 0.00512344 0)
(0.281192 0.00387956 0)
(0.263006 0.00287684 0)
(0.249096 0.00208879 0)
(0.238644 0.00148332 0)
(0.230912 0.00102756 0)
(0.225273 0.000691138 0)
(0.221217 0.000449047 0)
(0.218333 0.000279449 0)
(0.216306 0.000163116 0)
(0.214897 8.48727e-05 0)
(0.213931 3.42275e-05 0)
(0.213279 3.12903e-06 0)
(0.212847 -1.50357e-05 0)
(0.212567 -2.46146e-05 0)
(0.212392 -2.8661e-05 0)
(0.212287 -2.93411e-05 0)
(0.212229 -2.79689e-05 0)
(0.212202 -2.5523e-05 0)
(0.212194 -2.25833e-05 0)
(0.212197 -1.97737e-05 0)
(0.212207 -1.67403e-05 0)
(0.212219 -1.40087e-05 0)
(0.212232 -1.14025e-05 0)
(0.212244 -9.10632e-06 0)
(0.212255 -6.98795e-06 0)
(0.212263 -5.15867e-06 0)
(0.21227 -3.46368e-06 0)
(0.212273 -1.96101e-06 0)
(0.212272 3.41197e-08 0)
(1.01388 0.122356 0)
(1.05099 0.18782 0)
(1.03799 0.178959 0)
(0.988808 0.157908 0)
(0.924548 0.129026 0)
(0.856997 0.0973387 0)
(0.796687 0.0709006 0)
(0.744613 0.0509985 0)
(0.701797 0.0364875 0)
(0.667956 0.0258634 0)
(0.642003 0.0178756 0)
(0.622837 0.0117192 0)
(0.609396 0.0069024 0)
(0.600705 0.00308175 0)
(0.595978 6.58111e-05 0)
(0.594547 -0.00222798 0)
(0.595686 -0.00441688 0)
(0.599262 -0.006506 0)
(0.605098 -0.00862756 0)
(0.613211 -0.0109589 0)
(0.623777 -0.0136629 0)
(0.637122 -0.0168992 0)
(0.653737 -0.0208207 0)
(0.67425 -0.0255414 0)
(0.699392 -0.0311517 0)
(0.729974 -0.037694 0)
(0.766844 -0.0451257 0)
(0.81082 -0.0532554 0)
(0.862561 -0.0616563 0)
(0.922358 -0.0695755 0)
(0.989854 -0.0758403 0)
(1.06361 -0.0787927 0)
(1.14068 -0.0762437 0)
(1.21614 -0.0660706 0)
(1.28248 -0.047262 0)
(1.33168 -0.0203777 0)
(1.35435 0.0083438 0)
(1.35049 0.03688 0)
(1.31784 0.0629651 0)
(1.25888 0.0818203 0)
(1.18029 0.0909093 0)
(1.09146 0.090449 0)
(1.00115 0.083212 0)
(0.917424 0.0725778 0)
(0.843815 0.0609132 0)
(0.781835 0.0495245 0)
(0.731522 0.0391948 0)
(0.691834 0.0303235 0)
(0.661224 0.0230221 0)
(0.638025 0.0172064 0)
(0.620679 0.0126845 0)
(0.607856 0.00923312 0)
(0.598468 0.00664629 0)
(0.591644 0.00474016 0)
(0.586708 0.00335037 0)
(0.583158 0.00234348 0)
(0.580618 0.00162177 0)
(0.57881 0.00110884 0)
(0.57753 0.000747143 0)
(0.576629 0.000494519 0)
(0.576 0.000319694 0)
(0.575565 0.00019982 0)
(0.575267 0.000118755 0)
(0.575066 6.49771e-05 0)
(0.574932 3.02982e-05 0)
(0.574845 8.80521e-06 0)
(0.57479 -3.7272e-06 0)
(0.574755 -1.03897e-05 0)
(0.574735 -1.30889e-05 0)
(0.574724 -1.32797e-05 0)
(0.574718 -1.19001e-05 0)
(0.574715 -9.46849e-06 0)
(0.574713 -6.01584e-06 0)
(0.574711 -1.95438e-06 0)
(0.574703 3.29919e-06 0)
(1.01269 0.0740775 0)
(1.05989 0.148571 0)
(1.09687 0.166877 0)
(1.10918 0.163876 0)
(1.10283 0.154837 0)
(1.08545 0.139452 0)
(1.0595 0.118787 0)
(1.02793 0.0968592 0)
(0.9949 0.0767026 0)
(0.964227 0.0594132 0)
(0.937392 0.0447403 0)
(0.915087 0.032314 0)
(0.897482 0.0218494 0)
(0.884368 0.0130806 0)
(0.875425 0.00575693 0)
(0.870299 -0.000288435 0)
(0.868517 -0.00531043 0)
(0.869558 -0.0101155 0)
(0.873337 -0.0148566 0)
(0.879798 -0.019794 0)
(0.889023 -0.0252716 0)
(0.901245 -0.0316401 0)
(0.916898 -0.0392484 0)
(0.936602 -0.0483491 0)
(0.961031 -0.0591141 0)
(0.991052 -0.0716715 0)
(1.0277 -0.0860717 0)
(1.07209 -0.10211 0)
(1.12536 -0.119179 0)
(1.18848 -0.136104 0)
(1.26201 -0.150937 0)
(1.34566 -0.160689 0)
(1.43713 -0.160998 0)
(1.5312 -0.147349 0)
(1.61985 -0.117182 0)
(1.69363 -0.0690886 0)
(1.74014 -0.0102108 0)
(1.75249 0.0471512 0)
(1.73141 0.102763 0)
(1.67754 0.148529 0)
(1.59646 0.177241 0)
(1.49799 0.186433 0)
(1.39288 0.17972 0)
(1.28993 0.162285 0)
(1.19678 0.139485 0)
(1.11662 0.11527 0)
(1.05059 0.0922684 0)
(0.998048 0.0719668 0)
(0.957301 0.0549925 0)
(0.9263 0.0413569 0)
(0.903037 0.030703 0)
(0.885774 0.0225376 0)
(0.87309 0.016392 0)
(0.863822 0.011847 0)
(0.857061 0.0085146 0)
(0.852144 0.00607772 0)
(0.848585 0.00431281 0)
(0.846011 0.00304272 0)
(0.844153 0.00213152 0)
(0.842816 0.00148126 0)
(0.841857 0.0010195 0)
(0.841172 0.000693051 0)
(0.840686 0.000463967 0)
(0.840342 0.000304681 0)
(0.8401 0.000195293 0)
(0.839931 0.000121247 0)
(0.839814 7.19767e-05 0)
(0.839733 3.99016e-05 0)
(0.839678 1.97942e-05 0)
(0.839641 7.98224e-06 0)
(0.839615 1.99571e-06 0)
(0.839598 2.09026e-07 0)
(0.839584 1.39444e-06 0)
(0.839575 4.89756e-06 0)
(0.83956 1.05649e-05 0)
(1.00547 0.0377342 0)
(1.03485 0.0956168 0)
(1.07828 0.131285 0)
(1.112 0.145977 0)
(1.13103 0.146986 0)
(1.14383 0.139447 0)
(1.14515 0.127952 0)
(1.14037 0.114962 0)
(1.1305 0.100197 0)
(1.1172 0.0838812 0)
(1.10203 0.0673999 0)
(1.08657 0.0517996 0)
(1.07238 0.0377405 0)
(1.0602 0.0253029 0)
(1.05053 0.0143848 0)
(1.04361 0.00491517 0)
(1.03944 -0.00334121 0)
(1.03786 -0.0108583 0)
(1.03872 -0.0183558 0)
(1.04209 -0.0260824 0)
(1.04802 -0.0344481 0)
(1.05667 -0.0439577 0)
(1.06841 -0.0551853 0)
(1.08397 -0.0685287 0)
(1.10361 -0.0844029 8.02236e-34)
(1.12846 -0.10303 -7.93971e-34)
(1.15977 -0.124693 0)
(1.19906 -0.149371 0)
(1.24809 -0.176524 0)
(1.30885 -0.204844 0)
(1.38335 -0.231918 0)
(1.47332 -0.253332 0)
(1.57701 -0.261322 0)
(1.68687 -0.248118 0)
(1.7927 -0.209907 0)
(1.88126 -0.142539 0)
(1.94387 -0.0515068 0)
(1.96131 0.0445492 0)
(1.94413 0.136454 0)
(1.89965 0.215941 0)
(1.82835 0.270733 0)
(1.72962 0.294501 0)
(1.62088 0.291587 0)
(1.51151 0.268798 0)
(1.40961 0.23432 0)
(1.3206 0.195532 0)
(1.24651 0.157532 0)
(1.18719 0.123434 0)
(1.14103 0.0946473 0)
(1.10583 0.0713916 0)
(1.07936 0.0531662 0)
(1.05969 0.0391583 0)
(1.04525 0.0285881 0)
(1.03472 0.0207798 0)
(1.027 0.0150471 0)
(1.02136 0.0108318 0)
(1.01727 0.00777061 0)
(1.01429 0.0055572 0)
(1.01213 0.00395552 0)
(1.01055 0.00280135 0)
(1.0094 0.00197224 0)
(1.00857 0.00137829 0)
(1.00797 0.000955127 0)
(1.00754 0.000655525 0)
(1.00723 0.000444943 0)
(1.00701 0.000298044 0)
(1.00685 0.00019658 0)
(1.00673 0.000127362 0)
(1.00665 8.10493e-05 0)
(1.0066 5.0968e-05 0)
(1.00656 3.23678e-05 0)
(1.00653 2.21799e-05 0)
(1.0065 1.77708e-05 0)
(1.00649 1.83518e-05 0)
(1.00647 2.17966e-05 0)
(1.00294 0.0233799 0)
(1.01941 0.0651098 0)
(1.04993 0.0955549 0)
(1.08335 0.114565 0)
(1.11179 0.123569 0)
(1.13439 0.124626 0)
(1.15007 0.120608 0)
(1.15995 0.112141 0)
(1.16632 0.100182 0)
(1.16652 0.0877706 0)
(1.16416 0.0754156 0)
(1.15949 0.0622432 0)
(1.15322 0.0487061 0)
(1.14639 0.0354642 0)
(1.13964 0.0226734 0)
(1.1338 0.010986 0)
(1.12933 0.000434259 0)
(1.12647 -0.00936282 0)
(1.12537 -0.0190222 0)
(1.12613 -0.0290446 0)
(1.12891 -0.039844 0)
(1.1338 -0.0520894 0)
(1.14082 -0.0667807 0)
(1.15117 -0.0836075 0)
(1.16444 -0.103402 0)
(1.18305 -0.127775 0)
(1.20771 -0.156816 0)
(1.24024 -0.190743 0)
(1.28321 -0.229503 0)
(1.33982 -0.272239 0)
(1.41408 -0.316772 0)
(1.51032 -0.356456 0)
(1.62264 -0.378346 0)
(1.73591 -0.36873 0)
(1.83972 -0.32814 0)
(1.91993 -0.229528 0)
(1.97623 -0.0918922 0)
(1.98004 0.0421276 0)
(1.96461 0.161409 0)
(1.93192 0.264416 0)
(1.87581 0.342502 0)
(1.78957 0.387195 0)
(1.69169 0.393935 0)
(1.59164 0.371671 0)
(1.4959 0.329984 0)
(1.40973 0.27904 0)
(1.33731 0.226318 0)
(1.27884 0.178069 0)
(1.23302 0.136883 0)
(1.19791 0.103434 0)
(1.17146 0.0771357 0)
(1.15176 0.0568711 0)
(1.13734 0.0415594 0)
(1.12685 0.0302324 0)
(1.11916 0.0219314 0)
(1.11352 0.0158195 0)
(1.10947 0.0114057 0)
(1.1065 0.00821819 0)
(1.10433 0.00590297 0)
(1.10274 0.00422742 0)
(1.10158 0.0030143 0)
(1.10073 0.0021372 0)
(1.10011 0.00150633 0)
(1.09966 0.00105514 0)
(1.09933 0.000734125 0)
(1.09909 0.000506911 0)
(1.09892 0.00034712 0)
(1.0988 0.000235739 0)
(1.09871 0.000159006 0)
(1.09864 0.000107129 0)
(1.09859 7.29375e-05 0)
(1.09856 5.18748e-05 0)
(1.09853 3.97066e-05 0)
(1.09851 3.57824e-05 0)
(1.09849 3.50785e-05 0)
(1.00169 0.0158063 0)
(1.01147 0.0455696 0)
(1.03154 0.0694354 0)
(1.05668 0.0862356 0)
(1.08225 0.0966867 0)
(1.10616 0.101764 0)
(1.12703 0.102365 0)
(1.14427 0.0990303 0)
(1.15739 0.0925926 0)
(1.1662 0.0844904 0)
(1.17181 0.0744176 0)
(1.17499 0.0627698 0)
(1.17495 0.0505742 0)
(1.17366 0.038529 0)
(1.17126 0.0265823 0)
(1.16845 0.0151286 0)
(1.16558 0.00401124 0)
(1.16304 -0.00693699 0)
(1.16119 -0.0180141 0)
(1.16025 -0.0296434 0)
(1.16042 -0.0421104 0)
(1.16189 -0.0556591 0)
(1.16451 -0.0719542 0)
(1.16951 -0.0922336 0)
(1.17745 -0.116537 0)
(1.18925 -0.145958 0)
(1.20628 -0.181623 0)
(1.23065 -0.224654 0)
(1.26549 -0.275943 0)
(1.31494 -0.335757 0)
(1.38542 -0.403295 0)
(1.48069 -0.467105 0)
(1.57963 -0.494425 0)
(1.65365 -0.469383 0)
(1.70573 -0.416019 0)
(1.70114 -0.293386 0)
(1.65423 -0.117624 0)
(1.62594 0.0422877 0)
(1.64389 0.180041 0)
(1.675 0.310565 0)
(1.68234 0.414452 0)
(1.66064 0.477075 0)
(1.60906 0.488415 0)
(1.54678 0.464253 0)
(1.47817 0.415476 0)
(1.40943 0.353661 0)
(1.34773 0.288272 0)
(1.29724 0.227542 0)
(1.25765 0.175477 0)
(1.22749 0.132965 0)
(1.20496 0.099329 0)
(1.18832 0.0732585 0)
(1.17609 0.0533556 0)
(1.16709 0.0389317 0)
(1.16082 0.0284477 0)
(1.15617 0.0205651 0)
(1.15284 0.0148323 0)
(1.15039 0.0106829 0)
(1.14857 0.00767548 0)
(1.14724 0.00551706 0)
(1.14625 0.00396004 0)
(1.14553 0.00283293 0)
(1.145 0.00201833 0)
(1.14462 0.00143176 0)
(1.14433 0.00101083 0)
(1.14412 0.000709726 0)
(1.14397 0.00049547 0)
(1.14386 0.000344122 0)
(1.14378 0.00023817 0)
(1.14372 0.000165008 0)
(1.14367 0.000115283 0)
(1.14364 8.30455e-05 0)
(1.14361 6.25876e-05 0)
(1.1436 5.36134e-05 0)
(1.14358 4.78589e-05 0)
(1.00107 0.0111196 0)
(1.00739 0.0326164 0)
(1.02106 0.0508428 0)
(1.03939 0.0646722 0)
(1.05962 0.074201 0)
(1.08013 0.079927 0)
(1.0999 0.0823766 0)
(1.11812 0.0818592 0)
(1.13387 0.0787906 0)
(1.14686 0.0737048 0)
(1.15715 0.066834 0)
(1.16487 0.0583982 0)
(1.1698 0.049293 0)
(1.17291 0.0390789 0)
(1.17363 0.0278864 0)
(1.17335 0.0166244 0)
(1.1724 0.00579438 0)
(1.17082 -0.00508321 0)
(1.16899 -0.0163131 0)
(1.1671 -0.0283055 0)
(1.16533 -0.0414327 0)
(1.16392 -0.056302 0)
(1.16338 -0.0743487 0)
(1.16368 -0.0963653 0)
(1.16535 -0.123048 0)
(1.16937 -0.15621 0)
(1.17706 -0.197595 0)
(1.19049 -0.24911 0)
(1.21275 -0.312856 0)
(1.24798 -0.390758 0)
(1.30324 -0.484157 0)
(1.37137 -0.555442 0)
(1.41883 -0.548128 0)
(1.3037 -0.458612 0)
(1.15714 -0.317552 0)
(0.951527 -0.108267 0)
(0.751247 -0.00430154 2.9635e-18)
(0.742953 0.0239179 -1.57924e-18)
(0.84311 0.0829144 1.24028e-19)
(0.929237 0.151626 0)
(1.12678 0.325664 0)
(1.28112 0.451047 0)
(1.34855 0.499588 0)
(1.36224 0.497349 0)
(1.35285 0.466448 0)
(1.32618 0.407605 0)
(1.29309 0.337437 0)
(1.26199 0.26762 0)
(1.23681 0.206467 0)
(1.21725 0.156048 0)
(1.20248 0.11624 0)
(1.19161 0.0856614 0)
(1.18369 0.0626336 0)
(1.17798 0.0456066 0)
(1.1739 0.0328588 0)
(1.17093 0.0235943 0)
(1.16901 0.0171668 0)
(1.16765 0.0125498 0)
(1.16661 0.00911636 0)
(1.16584 0.00658957 0)
(1.16524 0.0047298 0)
(1.16478 0.00337833 0)
(1.16444 0.00240798 0)
(1.16419 0.00171389 0)
(1.16401 0.00121777 0)
(1.16387 0.000862677 0)
(1.16377 0.000608944 0)
(1.16369 0.000428355 0)
(1.16363 0.000300783 0)
(1.16359 0.000211511 0)
(1.16356 0.000149747 0)
(1.16354 0.000108534 0)
(1.16352 8.12152e-05 0)
(1.16351 6.76402e-05 0)
(1.1635 5.73658e-05 0)
(1.00075 0.00800023 0)
(1.0052 0.0236359 0)
(1.01508 0.0373754 0)
(1.0288 0.0482648 0)
(1.04466 0.0562236 0)
(1.06156 0.0615126 0)
(1.07866 0.0643988 0)
(1.09528 0.0651018 0)
(1.11072 0.0638387 0)
(1.12458 0.0608713 0)
(1.13658 0.0563162 0)
(1.14651 0.0503112 0)
(1.15427 0.0431148 0)
(1.16012 0.0348563 0)
(1.16395 0.0259175 0)
(1.16595 0.0163667 0)
(1.16643 0.0064976 0)
(1.16571 -0.00366117 0)
(1.16404 -0.0143527 0)
(1.16151 -0.025947 0)
(1.15823 -0.0388957 0)
(1.15436 -0.0538476 0)
(1.15002 -0.0718577 0)
(1.14518 -0.0941214 0)
(1.14009 -0.121986 1.33504e-32)
(1.13532 -0.157224 -1.32571e-32)
(1.13171 -0.202078 0)
(1.13059 -0.259295 0)
(1.13399 -0.332122 0)
(1.14475 -0.423553 0)
(1.16479 -0.531849 0)
(1.1585 -0.571146 0)
(1.06789 -0.465919 1.39161e-18)
(0.814893 -0.175591 0)
(0 0 0)
(0 0 0)
(0 0 0)
(0 0 0)
(0 0 0)
(0 0 0)
(0.650083 0.0951235 0)
(0.82144 0.264363 0)
(1.00623 0.407798 0)
(1.10132 0.458091 0)
(1.152 0.452893 0)
(1.17969 0.414589 0)
(1.18818 0.352902 0)
(1.18765 0.284217 0)
(1.18455 0.220623 0)
(1.1813 0.167389 0)
(1.17851 0.124889 0)
(1.17636 0.092004 0)
(1.17481 0.067076 0)
(1.17374 0.0487695 0)
(1.17299 0.0352892 0)
(1.17254 0.0253161 0)
(1.17221 0.0181756 0)
(1.17202 0.0130047 0)
(1.17196 0.00941441 0)
(1.17191 0.00690564 0)
(1.17186 0.00503485 0)
(1.17181 0.0036531 0)
(1.17177 0.00263081 0)
(1.17173 0.0018823 0)
(1.17169 0.00134173 0)
(1.17165 0.000951078 0)
(1.17162 0.000672706 0)
(1.1716 0.000475066 0)
(1.17158 0.000335451 0)
(1.17156 0.000237442 0)
(1.17155 0.000169102 0)
(1.17154 0.000122878 0)
(1.17153 9.15273e-05 0)
(1.17153 7.49143e-05 0)
(1.17153 6.15432e-05 0)
(1.00057 0.00573893 0)
(1.00394 0.0170034 0)
(1.01151 0.0271217 0)
(1.02227 0.0354008 0)
(1.03508 0.0416706 0)
(1.04913 0.04605 0)
(1.0638 0.0487259 0)
(1.0786 0.0498541 0)
(1.09291 0.0495392 0)
(1.10634 0.0478732 0)
(1.11855 0.0449059 0)
(1.12926 0.0407 0)
(1.13828 0.0353962 0)
(1.14554 0.029116 0)
(1.15094 0.0220076 0)
(1.15447 0.014233 0)
(1.15619 0.0059774 0)
(1.15621 -0.0027601 0)
(1.15463 -0.0121581 0)
(1.1515 -0.0225251 0)
(1.14679 -0.0342977 0)
(1.14046 -0.0481303 0)
(1.13239 -0.0649972 0)
(1.12234 -0.0861015 0)
(1.11013 -0.11291 0)
(1.09563 -0.147371 0)
(1.07876 -0.192001 0)
(1.05946 -0.249803 0)
(1.03748 -0.324249 0)
(1.01422 -0.415835 0)
(0.96693 -0.502658 0)
(0.869358 -0.440539 8.94929e-19)
(0.671371 -0.182752 -5.46409e-18)
(0 0 0)
(0 0 0)
(0 0 0)
(0 0 0)
(0 0 0)
(0 0 0)
(0 0 0)
(0 0 0)
(0.569029 0.0761621 0)
(0.702282 0.227316 0)
(0.853584 0.350268 0)
(0.944758 0.387297 0)
(1.01237 0.373459 0)
(1.06108 0.329151 0)
(1.094 0.270908 0)
(1.11649 0.212888 0)
(1.13238 0.162422 0)
(1.14381 0.121439 0)
(1.1521 0.0894924 0)
(1.15814 0.0652677 0)
(1.16257 0.0473179 0)
(1.16586 0.0341456 0)
(1.16825 0.0245398 0)
(1.16995 0.0176497 0)
(1.17119 0.0127117 0)
(1.17211 0.0091712 0)
(1.17279 0.00663726 0)
(1.1733 0.00479484 0)
(1.1737 0.00343773 0)
(1.17396 0.00246768 0)
(1.17413 0.00179619 0)
(1.17425 0.00129876 0)
(1.17434 0.000934841 0)
(1.1744 0.000668838 0)
(1.17444 0.000475554 0)
(1.17446 0.000338071 0)
(1.17448 0.000240679 0)
(1.17449 0.000171706 0)
(1.1745 0.000124529 0)
(1.1745 9.24102e-05 0)
(1.17451 7.49035e-05 0)
(1.17451 5.96354e-05 0)
(1.00046 0.00397578 0)
(1.00318 0.0117911 0)
(1.00933 0.0189083 0)
(1.0182 0.0248627 0)
(1.02899 0.0294916 0)
(1.04106 0.0328314 0)
(1.05394 0.0349867 0)
(1.06719 0.0360716 0)
(1.08041 0.0361612 0)
(1.09316 0.0352767 0)
(1.10512 0.0334177 0)
(1.11598 0.0305958 0)
(1.12547 0.0268643 0)
(1.13339 0.0222906 0)
(1.13956 0.0169925 0)
(1.14388 0.0110911 0)
(1.14627 0.00475016 0)
(1.14668 -0.00213742 0)
(1.14503 -0.00967049 0)
(1.14125 -0.0181117 0)
(1.13519 -0.0278449 0)
(1.12658 -0.0394414 0)
(1.11504 -0.0537363 0)
(1.1 -0.0718325 0)
(1.08072 -0.0951444 1.75656e-33)
(1.05624 -0.125514 -1.7545e-33)
(1.02541 -0.165257 0)
(0.986333 -0.21688 0)
(0.937475 -0.282736 0)
(0.871135 -0.357808 0)
(0.770645 -0.395706 0)
(0.641409 -0.241456 0)
(0 0 0)
(0 0 0)
(0 0 0)
(0 0 0)
(0 0 0)
(0 0 0)
(0 0 0)
(0 0 0)
(0 0 0)
(0 0 0)
(0.550149 0.0874743 0)
(0.672578 0.225004 0)
(0.775015 0.290816 0)
(0.864686 0.298723 0)
(0.941204 0.272069 0)
(1.00143 0.228924 0)
(1.04742 0.182465 0)
(1.08191 0.140294 0)
(1.10744 0.105282 0)
(1.12616 0.0776936 0)
(1.13981 0.0566691 0)
(1.14972 0.0410328 0)
(1.15692 0.02956 0)
(1.16212 0.0212226 0)
(1.16585 0.0152347 0)
(1.16854 0.0109432 0)
(1.17048 0.00788065 0)
(1.1719 0.00569886 0)
(1.17294 0.00412799 0)
(1.17369 0.00298437 0)
(1.17423 0.00215384 0)
(1.17461 0.00155704 0)
(1.17489 0.0011182 0)
(1.17509 0.000797422 0)
(1.17523 0.000569313 0)
(1.17532 0.00040978 0)
(1.17539 0.00029363 0)
(1.17544 0.000210584 0)
(1.17547 0.000151348 0)
(1.1755 0.000110367 0)
(1.17552 8.1998e-05 0)
(1.17553 6.5842e-05 0)
(1.17555 5.13622e-05 0)
(1.0004 0.00251031 0)
(1.00273 0.00744695 0)
(1.00801 0.0119817 0)
(1.01572 0.0158322 0)
(1.02523 0.018879 0)
(1.03603 0.0211243 0)
(1.04773 0.0226217 0)
(1.05993 0.0234361 0)
(1.07229 0.0236224 0)
(1.08446 0.0231875 0)
(1.0961 0.0221085 0)
(1.1069 0.0203744 0)
(1.11653 0.0180002 0)
(1.12474 0.0150179 0)
(1.13126 0.0114972 0)
(1.13594 0.00749161 0)
(1.13857 0.00320003 0)
(1.13911 -0.00153419 0)
(1.13728 -0.00678345 0)
(1.13289 -0.0127336 0)
(1.12567 -0.0196815 0)
(1.11516 -0.0280508 0)
(1.10072 -0.0384657 0)
(1.0814 -0.0517819 0)
(1.05593 -0.0691146 0)
(1.02254 -0.0918928 0)
(0.97898 -0.121815 0)
(0.921773 -0.160441 0)
(0.84871 -0.208448 0)
(0.744276 -0.259734 0)
(0.621244 -0.258221 0)
(0.503595 -0.0581318 0)
(0 0 0)
(0 0 0)
(0 0 0)
(0 0 0)
(0 0 0)
(0 0 0)
(0 0 0)
(0 0 0)
(0 0 0)
(0 0 0)
(0.494293 0.0257781 0)
(0.553885 0.116668 0)
(0.651777 0.186541 0)
(0.753382 0.205493 0)
(0.847469 0.192706 0)
(0.926468 0.164763 0)
(0.990045 0.132739 0)
(1.03933 0.102786 0)
(1.07645 0.0774507 0)
(1.1039 0.0572688 0)
(1.12395 0.0417972 0)
(1.13849 0.0302473 0)
(1.14898 0.0217696 0)
(1.15653 0.0156185 0)
(1.16194 0.0111993 0)
(1.16584 0.00803754 0)
(1.16864 0.00578225 0)
(1.17066 0.00417356 0)
(1.17213 0.00301707 0)
(1.17319 0.00217981 0)
(1.17395 0.00157493 0)
(1.1745 0.00114033 0)
(1.1749 0.00082408 0)
(1.17519 0.000592549 0)
(1.17539 0.000425082 0)
(1.17553 0.000305183 0)
(1.17564 0.000217077 0)
(1.17571 0.000155004 0)
(1.17577 0.000111231 0)
(1.1758 8.1155e-05 0)
(1.17583 6.0231e-05 0)
(1.17585 4.76943e-05 0)
(1.17588 3.72045e-05 0)
(1.00036 0.00121622 0)
(1.00249 0.00360631 0)
(1.0073 0.00581437 0)
(1.01437 0.00770682 0)
(1.02317 0.00921899 0)
(1.03327 0.0103463 0)
(1.0443 0.0111118 0)
(1.0559 0.0115435 0)
(1.06774 0.0116696 0)
(1.07955 0.0114939 0)
(1.09095 0.0109991 0)
(1.10166 0.0101739 0)
(1.11133 0.0090213 0)
(1.11967 0.00755152 0)
(1.12635 0.00579184 0)
(1.13117 0.00373667 0)
(1.13381 0.0015278 0)
(1.13429 -0.000803831 0)
(1.13232 -0.00349475 0)
(1.12751 -0.00657132 0)
(1.11949 -0.0101941 0)
(1.10771 -0.0145868 0)
(1.09131 -0.0200853 0)
(1.06908 -0.0271576 0)
(1.0393 -0.0364158 7.33494e-33)
(0.999653 -0.0486316 -7.38647e-33)
(0.947067 -0.0646657 0)
(0.877179 -0.0852169 0)
(0.787109 -0.110284 0)
(0.662663 -0.134798 0)
(0.552943 -0.123607 1.30571e-16)
(0 0 0)
(0 0 0)
(0 0 0)
(0 0 0)
(0 0 0)
(0 0 0)
(0 0 0)
(0 0 0)
(0 0 0)
(0 0 0)
(0 0 0)
(0.489972 0.00290297 2.81373e-18)
(0.510044 0.0437107 1.17595e-17)
(0.583886 0.0889439 0)
(0.684488 0.103717 0)
(0.78882 0.0997077 0)
(0.878474 0.0861959 0)
(0.952889 0.0698363 0)
(1.01138 0.0542865 0)
(1.05592 0.0409959 0)
(1.08907 0.0303521 0)
(1.11335 0.022167 0)
(1.13095 0.0160409 0)
(1.14364 0.0115402 0)
(1.15275 0.00827593 0)
(1.15927 0.0059307 0)
(1.16395 0.004254 0)
(1.16731 0.00305817 0)
(1.16973 0.00220499 0)
(1.17148 0.00159281 0)
(1.17274 0.00115084 0)
(1.17365 0.000831779 0)
(1.17431 0.00060209 0)
(1.17479 0.000435104 0)
(1.17513 0.000313393 0)
(1.17538 0.000225414 0)
(1.17556 0.000162256 0)
(1.17568 0.000116448 0)
(1.17577 8.32158e-05 0)
(1.17584 5.96715e-05 0)
(1.17588 4.3254e-05 0)
(1.17592 3.18938e-05 0)
(1.17594 2.43297e-05 0)
(1.17597 1.82321e-05 0)
(1.00035 3.35118e-06 0)
(1.00238 3.64322e-06 0)
(1.00706 5.11983e-06 0)
(1.01394 6.35983e-06 0)
(1.02251 7.56095e-06 0)
(1.03238 8.50918e-06 0)
(1.04319 9.10169e-06 0)
(1.0546 9.16264e-06 0)
(1.06628 8.61317e-06 0)
(1.07796 7.36479e-06 0)
(1.08928 5.50404e-06 0)
(1.09995 3.1583e-06 0)
(1.10963 6.14905e-07 0)
(1.11801 -1.88637e-06 0)
(1.12475 -4.039e-06 0)
(1.12964 -5.70445e-06 0)
(1.13234 -6.65035e-06 0)
(1.13254 -6.72674e-06 0)
(1.13056 -6.39592e-06 0)
(1.12563 -5.44004e-06 0)
(1.11734 -3.811e-06 0)
(1.10512 -1.5578e-06 0)
(1.08804 1.44025e-06 0)
(1.06477 5.10687e-06 0)
(1.03347 9.29638e-06 0)
(0.991599 1.15131e-05 0)
(0.935843 1.04313e-05 0)
(0.861547 -8.0823e-06 0)
(0.765885 -2.54532e-05 0)
(0.631449 -4.50655e-05 0)
(0.534026 -3.84191e-05 0)
(0 0 0)
(0 0 0)
(0 0 0)
(0 0 0)
(0 0 0)
(0 0 0)
(0 0 0)
(0 0 0)
(0 0 0)
(0 0 0)
(0 0 0)
(0 0 0)
(0.499797 0.000136673 0)
(0.562564 2.15566e-06 0)
(0.660918 0.000117113 0)
(0.768484 7.83838e-05 0)
(0.861568 3.81385e-05 0)
(0.940164 2.31807e-05 0)
(1.00176 1.68481e-05 0)
(1.0488 1.11015e-05 0)
(1.08392 5.83813e-06 0)
(1.10965 3.06534e-06 0)
(1.12832 1.39502e-06 0)
(1.14177 5.79553e-07 0)
(1.15142 3.53459e-07 0)
(1.15833 4.3684e-07 0)
(1.16328 6.48225e-07 0)
(1.16684 8.73727e-07 0)
(1.1694 1.05339e-06 0)
(1.17124 1.15625e-06 0)
(1.17258 1.18055e-06 0)
(1.17354 1.13982e-06 0)
(1.17424 1.04454e-06 0)
(1.17474 9.08331e-07 0)
(1.1751 7.38206e-07 0)
(1.17536 5.37996e-07 0)
(1.17555 3.13168e-07 0)
(1.17568 6.55426e-08 0)
(1.17578 -1.88247e-07 0)
(1.17585 -4.52077e-07 0)
(1.1759 -7.19671e-07 0)
(1.17594 -1.00659e-06 0)
(1.17596 -1.27839e-06 0)
(1.17599 -1.65907e-06 0)
(1.00036 -0.00120954 0)
(1.00249 -0.00359898 0)
(1.0073 -0.00580409 0)
(1.01437 -0.00769412 0)
(1.02317 -0.00920391 0)
(1.03327 -0.0103294 0)
(1.0443 -0.0110937 0)
(1.0559 -0.0115254 0)
(1.06774 -0.0116527 0)
(1.07955 -0.0114794 0)
(1.09095 -0.0109883 0)
(1.10166 -0.0101677 0)
(1.11134 -0.00902017 0)
(1.11967 -0.0075553 0)
(1.12635 -0.00579987 0)
(1.13118 -0.00374798 0)
(1.13381 -0.00154108 0)
(1.13429 0.000790092 0)
(1.13233 0.00348172 0)
(1.12751 0.00656018 0)
(1.1195 0.010186 0)
(1.10772 0.0145831 0)
(1.09132 0.0200871 0)
(1.06908 0.0271664 0)
(1.03931 0.0364324 0)
(0.999671 0.0486535 0)
(0.947086 0.0646824 0)
(0.877213 0.0852167 0)
(0.787126 0.110224 0)
(0.662699 0.134705 0)
(0.552928 0.12357 -1.30577e-16)
(0 0 0)
(0 0 0)
(0 0 0)
(0 0 0)
(0 0 0)
(0 0 0)
(0 0 0)
(0 0 0)
(0 0 0)
(0 0 0)
(0 0 0)
(0.487629 -0.00404711 -3.23088e-18)
(0.509999 -0.0443086 -1.18585e-17)
(0.583173 -0.0889396 0)
(0.684348 -0.103623 0)
(0.788721 -0.0996203 0)
(0.878396 -0.086133 0)
(0.952867 -0.0697972 0)
(1.01136 -0.0542618 0)
(1.05592 -0.0409792 0)
(1.08907 -0.0303412 0)
(1.11335 -0.0221618 0)
(1.13096 -0.0160385 0)
(1.14364 -0.0115391 0)
(1.15275 -0.0082751 0)
(1.15927 -0.00592969 0)
(1.16395 -0.00425254 0)
(1.16731 -0.00305632 0)
(1.16973 -0.0022028 0)
(1.17148 -0.00159046 0)
(1.17274 -0.00114844 0)
(1.17365 -0.000829498 0)
(1.17431 -0.000599992 0)
(1.17479 -0.000433309 0)
(1.17513 -0.000311931 0)
(1.17538 -0.000224363 0)
(1.17556 -0.000161649 0)
(1.17568 -0.000116337 0)
(1.17577 -8.36043e-05 0)
(1.17584 -6.05843e-05 0)
(1.17588 -4.46894e-05 0)
(1.17592 -3.38986e-05 0)
(1.17594 -2.69181e-05 0)
(1.17597 -2.15802e-05 0)
(1.0004 -0.00250377 0)
(1.00273 -0.00743974 0)
(1.00801 -0.0119715 0)
(1.01572 -0.0158197 0)
(1.02523 -0.0188641 0)
(1.03604 -0.0211077 0)
(1.04773 -0.0226042 0)
(1.05993 -0.0234186 0)
(1.07229 -0.0236061 0)
(1.08447 -0.0231737 0)
(1.0961 -0.0220983 0)
(1.1069 -0.0203686 0)
(1.11654 -0.0179993 0)
(1.12475 -0.0150217 0)
(1.13127 -0.0115052 0)
(1.13594 -0.00750278 0)
(1.13858 -0.00321331 0)
(1.13912 0.0015204 0)
(1.13729 0.00677011 0)
(1.1329 0.0127219 0)
(1.12568 0.0196724 0)
(1.11517 0.0280452 0)
(1.10073 0.0384645 0)
(1.08142 0.0517861 0)
(1.05595 0.0691244 0)
(1.02257 0.0919063 0)
(0.979027 0.121821 0)
(0.921831 0.16043 0)
(0.84879 0.208384 0)
(0.744224 0.259656 0)
(0.621164 0.258049 0)
(0.506969 0.0567949 0)
(0 0 0)
(0 0 0)
(0 0 0)
(0 0 0)
(0 0 0)
(0 0 0)
(0 0 0)
(0 0 0)
(0 0 0)
(0 0 0)
(0.493535 -0.0254589 0)
(0.553956 -0.116639 0)
(0.651715 -0.186561 0)
(0.75329 -0.205514 0)
(0.847424 -0.192705 0)
(0.926442 -0.164737 0)
(0.990034 -0.132722 0)
(1.03932 -0.102772 0)
(1.07645 -0.0774407 0)
(1.1039 -0.0572623 0)
(1.12395 -0.0417932 0)
(1.13849 -0.0302449 0)
(1.14899 -0.021768 0)
(1.15653 -0.015617 0)
(1.16195 -0.0111976 0)
(1.16584 -0.00803559 0)
(1.16864 -0.00578003 0)
(1.17066 -0.00417115 0)
(1.17212 -0.00301458 0)
(1.17319 -0.00217735 0)
(1.17395 -0.0015726 0)
(1.1745 -0.00113824 0)
(1.1749 -0.000822306 0)
(1.17518 -0.000591159 0)
(1.17539 -0.000424083 0)
(1.17553 -0.000304643 0)
(1.17564 -0.000217021 0)
(1.17571 -0.000155436 0)
(1.17577 -0.000112161 0)
(1.1758 -8.2616e-05 0)
(1.17583 -6.22327e-05 0)
(1.17585 -5.02473e-05 0)
(1.17588 -4.04626e-05 0)
(1.00046 -0.0039695 0)
(1.00318 -0.0117842 0)
(1.00933 -0.0188985 0)
(1.0182 -0.0248507 0)
(1.02899 -0.0294773 0)
(1.04107 -0.0328155 0)
(1.05395 -0.0349699 0)
(1.0672 -0.036055 0)
(1.08042 -0.0361459 0)
(1.09317 -0.0352638 0)
(1.10513 -0.0334083 0)
(1.11599 -0.0305905 0)
(1.12548 -0.0268637 0)
(1.1334 -0.0222944 0)
(1.13957 -0.0170003 0)
(1.14389 -0.0111021 0)
(1.14628 -0.00476305 0)
(1.14669 0.00212367 0)
(1.14503 0.00965693 0)
(1.14126 0.0180993 0)
(1.1352 0.0278345 0)
(1.12659 0.0394335 0)
(1.11505 0.0537313 0)
(1.10002 0.0718304 0)
(1.08074 0.0951443 0)
(1.05628 0.125513 0)
(1.02547 0.165248 0)
(0.986396 0.216856 0)
(0.937552 0.28269 0)
(0.871164 0.357774 0)
(0.770619 0.395764 0)
(0.641516 0.241672 0)
(0 0 0)
(0 0 0)
(0 0 0)
(0 0 0)
(0 0 0)
(0 0 0)
(0 0 0)
(0 0 0)
(0 0 0)
(0 0 0)
(0.550083 -0.0872727 0)
(0.672663 -0.22504 0)
(0.774942 -0.290744 0)
(0.864719 -0.298715 0)
(0.9412 -0.272074 0)
(1.00144 -0.228908 0)
(1.04742 -0.182455 0)
(1.08192 -0.140284 0)
(1.10745 -0.105273 0)
(1.12617 -0.0776862 0)
(1.13982 -0.0566637 0)
(1.14973 -0.0410288 0)
(1.15692 -0.0295566 0)
(1.16212 -0.0212197 0)
(1.16585 -0.0152318 0)
(1.16854 -0.0109403 0)
(1.17048 -0.00787779 0)
(1.1719 -0.00569606 0)
(1.17294 -0.00412524 0)
(1.17369 -0.00298182 0)
(1.17423 -0.00215146 0)
(1.17461 -0.00155495 0)
(1.17489 -0.00111649 0)
(1.17509 -0.000796117 0)
(1.17523 -0.000568384 0)
(1.17532 -0.000409351 0)
(1.17539 -0.000293645 0)
(1.17544 -0.000211077 0)
(1.17547 -0.000152319 0)
(1.1755 -0.000111828 0)
(1.17551 -8.39673e-05 0)
(1.17553 -6.83341e-05 0)
(1.17554 -5.45186e-05 0)
(1.00057 -0.00573305 0)
(1.00394 -0.0169969 0)
(1.01151 -0.0271126 0)
(1.02228 -0.0353895 0)
(1.03509 -0.0416572 0)
(1.04913 -0.0460351 0)
(1.06381 -0.0487102 0)
(1.0786 -0.0498386 0)
(1.09292 -0.0495251 0)
(1.10635 -0.0478615 0)
(1.11856 -0.0448974 0)
(1.12927 -0.0406954 0)
(1.13829 -0.0353958 0)
(1.14555 -0.0291198 0)
(1.15095 -0.0220152 0)
(1.15448 -0.0142437 0)
(1.1562 -0.00598984 0)
(1.15622 0.00274669 0)
(1.15464 0.0121446 0)
(1.1515 0.0225123 0)
(1.1468 0.0342864 0)
(1.14047 0.0481206 0)
(1.1324 0.0649889 0)
(1.12236 0.0860939 0)
(1.11015 0.112901 0)
(1.09565 0.147359 0)
(1.0788 0.19198 0)
(1.05949 0.249769 0)
(1.03756 0.324222 0)
(1.01417 0.415821 0)
(0.967063 0.502529 0)
(0.869452 0.440557 -8.95128e-19)
(0.671319 0.182821 5.46248e-18)
(0 0 0)
(0 0 0)
(0 0 0)
(0 0 0)
(0 0 0)
(0 0 0)
(0 0 0)
(0 0 0)
(0.569028 -0.0761136 0)
(0.702355 -0.227291 0)
(0.853523 -0.350195 0)
(0.944841 -0.387289 0)
(1.01237 -0.373479 0)
(1.06111 -0.329145 0)
(1.09402 -0.270889 0)
(1.11651 -0.212872 0)
(1.13239 -0.162408 0)
(1.14382 -0.121427 0)
(1.15211 -0.0894829 0)
(1.15815 -0.0652602 0)
(1.16258 -0.0473117 0)
(1.16587 -0.0341403 0)
(1.16825 -0.0245351 0)
(1.16995 -0.0176454 0)
(1.17119 -0.0127078 0)
(1.17211 -0.00916766 0)
(1.17279 -0.00663396 0)
(1.1733 -0.00479186 0)
(1.17369 -0.00343504 0)
(1.17396 -0.00246527 0)
(1.17413 -0.00179412 0)
(1.17425 -0.0012971 0)
(1.17434 -0.000933605 0)
(1.1744 -0.000668085 0)
(1.17444 -0.000475208 0)
(1.17446 -0.000338177 0)
(1.17448 -0.000241231 0)
(1.17449 -0.000172721 0)
(1.1745 -0.000126 0)
(1.1745 -9.43412e-05 0)
(1.17451 -7.73071e-05 0)
(1.17451 -6.26496e-05 0)
(1.00075 -0.00799487 0)
(1.0052 -0.02363 0)
(1.01508 -0.0373671 0)
(1.0288 -0.0482546 0)
(1.04466 -0.0562115 0)
(1.06156 -0.0614991 0)
(1.07866 -0.0643847 0)
(1.09529 -0.065088 0)
(1.11073 -0.0638261 0)
(1.12459 -0.0608609 0)
(1.13659 -0.0563086 0)
(1.14653 -0.0503073 0)
(1.15428 -0.0431148 0)
(1.16013 -0.0348602 0)
(1.16396 -0.0259248 0)
(1.16597 -0.0163766 0)
(1.16644 -0.00650937 0)
(1.16572 0.00364845 0)
(1.16405 0.0143398 0)
(1.16152 0.0259346 0)
(1.15823 0.0388843 0)
(1.15436 0.0538372 0)
(1.15003 0.0718477 0)
(1.14519 0.0941112 0)
(1.1401 0.121973 0)
(1.13533 0.157207 0)
(1.13172 0.202054 0)
(1.1306 0.259259 0)
(1.13398 0.332101 0)
(1.14483 0.423488 0)
(1.16472 0.531909 0)
(1.15855 0.571218 0)
(1.06815 0.465929 -1.39191e-18)
(0.814816 0.175499 0)
(0 0 0)
(0 0 0)
(0 0 0)
(0 0 0)
(0 0 0)
(0 0 0)
(0.64998 -0.0951733 0)
(0.821358 -0.264296 1.59277e-18)
(1.0063 -0.407859 0)
(1.10132 -0.458097 0)
(1.15204 -0.452901 0)
(1.17971 -0.414573 0)
(1.18819 -0.352894 0)
(1.18766 -0.2842 0)
(1.18456 -0.220606 0)
(1.18131 -0.167373 0)
(1.17852 -0.124876 0)
(1.17637 -0.0919932 0)
(1.17481 -0.0670666 0)
(1.17374 -0.0487612 0)
(1.17299 -0.0352818 0)