/*--------------------------------*- C++ -*----------------------------------*\
| =========                 |                                                 |
| \\      /  F ield         | OpenFOAM: The Open Source CFD Toolbox           |
|  \\    /   O peration     | Version:  2206                                  |
|   \\  /    A nd           | Website:  www.openfoam.com                      |
|    \\/     M anipulation  |                                                 |
\*---------------------------------------------------------------------------*/
FoamFile
{
    version     2.0;
    format      ascii;
    arch        "LSB;label=32;scalar=64";
    class       surfaceVectorField;
    location    "0.5";
    object      Uf;
}
// * * * * * * * * * * * * * * * * * * * * * * * * * * * * * * * * * * * * * //

dimensions      [0 1 -1 0 0 0 0];

internalField   nonuniform List<vector> 
3650
(
(0.859681 0.053334 0)
(0.903213 0.140319 0)
(0.701105 0.0847257 0)
(0.900161 0.158576 0)
(0.566931 0.0661379 0)
(0.842938 0.134174 0)
(0.463396 0.0366773 0)
(0.75184 0.103535 0)
(0.387359 0.0189904 0)
(0.671661 0.076037 0)
(0.333579 0.0103001 0)
(0.606409 0.0537802 0)
(0.295934 0.00555484 0)
(0.554406 0.0376458 0)
(0.269731 0.00291518 0)
(0.512833 0.026203 0)
(0.251445 0.00149785 0)
(0.480529 0.0182863 0)
(0.238653 0.000726783 0)
(0.45601 0.0127916 0)
(0.229866 0.000268436 0)
(0.437756 0.00878797 0)
(0.22413 -3.6294e-05 0)
(0.424624 0.00573584 0)
(0.220787 -0.000265092 0)
(0.415693 0.00334343 0)
(0.219365 -0.000458292 0)
(0.410205 0.00142204 0)
(0.219478 -0.000652453 0)
(0.407577 -0.000112557 0)
(0.220773 -0.000854126 0)
(0.407218 -0.00129533 0)
(0.223199 -0.00105853 0)
(0.408719 -0.00242509 0)
(0.226716 -0.00129246 0)
(0.412 -0.00351754 0)
(0.231367 -0.00157998 0)
(0.416954 -0.00465022 0)
(0.237272 -0.00193602 0)
(0.423634 -0.00590567 0)
(0.244642 -0.00237925 0)
(0.432213 -0.00736907 0)
(0.253771 -0.00293166 0)
(0.44298 -0.00913012 0)
(0.265049 -0.00361324 0)
(0.456352 -0.011277 0)
(0.27893 -0.00443998 0)
(0.472855 -0.0138814 0)
(0.295928 -0.00541935 0)
(0.493101 -0.0169967 0)
(0.316574 -0.00654153 0)
(0.517758 -0.0206468 0)
(0.341385 -0.00776996 0)
(0.547518 -0.0248104 0)
(0.370769 -0.00902345 0)
(0.58303 -0.0293843 0)
(0.404889 -0.0101553 0)
(0.624779 -0.0341201 0)
(0.443462 -0.0109376 0)
(0.672901 -0.0385738 0)
(0.485513 -0.0110506 0)
(0.726919 -0.0420527 0)
(0.529084 -0.0101006 0)
(0.785389 -0.0435715 0)
(0.570935 -0.00778118 0)
(0.845615 -0.0418518 0)
(0.606709 -0.00417885 0)
(0.903192 -0.0357745 0)
(0.631594 0.000296424 0)
(0.952193 -0.0248857 0)
(0.641209 0.0050127 0)
(0.985505 -0.00961534 0)
(0.634749 0.00956755 0)
(0.997409 0.00645988 0)
(0.6126 0.0131423 0)
(0.988664 0.0221494 0)
(0.576739 0.0148682 0)
(0.957608 0.0358619 0)
(0.531451 0.0148641 0)
(0.907291 0.0452878 0)
(0.482002 0.0135195 0)
(0.84378 0.0494516 0)
(0.433497 0.011467 0)
(0.774391 0.048505 0)
(0.389301 0.0093663 0)
(0.705784 0.0441981 0)
(0.350885 0.00749427 0)
(0.643168 0.038415 0)
(0.318695 0.00587276 0)
(0.588695 0.0321919 0)
(0.292539 0.0045015 0)
(0.543156 0.0261549 0)
(0.271845 0.0033782 0)
(0.506357 0.020695 0)
(0.255839 0.00248282 0)
(0.47742 0.0160054 0)
(0.243701 0.00178605 0)
(0.45516 0.0121391 0)
(0.234647 0.00125544 0)
(0.438335 0.0090539 0)
(0.227994 0.000859349 0)
(0.425796 0.0066532 0)
(0.223173 0.000570093 0)
(0.416564 0.00482082 0)
(0.219725 0.000364248 0)
(0.409843 0.00344846 0)
(0.217286 0.000221283 0)
(0.404989 0.00243934 0)
(0.215579 0.000123995 0)
(0.401507 0.00170667 0)
(0.2144 5.95501e-05 0)
(0.399027 0.00117893 0)
(0.213597 1.86782e-05 0)
(0.397274 0.000803046 0)
(0.213059 -5.95335e-06 0)
(0.396044 0.00053812 0)
(0.212706 -1.98252e-05 0)
(0.395188 0.000353294 0)
(0.21248 -2.66378e-05 0)
(0.394598 0.000225894 0)
(0.21234 -2.9001e-05 0)
(0.394196 0.000139177 0)
(0.21226 -2.8655e-05 0)
(0.393926 8.08391e-05 0)
(0.212217 -2.6746e-05 0)
(0.393748 4.23763e-05 0)
(0.212199 -2.40532e-05 0)
(0.393634 1.76572e-05 0)
(0.212197 -2.11785e-05 0)
(0.393563 2.4976e-06 0)
(0.212203 -1.8257e-05 0)
(0.393521 -6.34059e-06 0)
(0.212214 -1.53745e-05 0)
(0.393498 -1.07715e-05 0)
(0.212227 -1.27056e-05 0)
(0.393487 -1.25496e-05 0)
(0.212239 -1.02544e-05 0)
(0.393484 -1.24392e-05 0)
(0.21225 -8.04713e-06 0)
(0.393484 -1.12877e-05 0)
(0.21226 -6.07331e-06 0)
(0.393487 -9.47737e-06 0)
(0.212267 -4.31117e-06 0)
(0.393489 -7.37766e-06 0)
(0.212272 -2.71234e-06 0)
(0.393491 -4.82957e-06 0)
(0.212274 -9.63443e-07 0)
(0.393492 -2.07235e-06 0)
(0.393488 1.65806e-06 0)
(1.05168 0.155088 0)
(1.01329 0.0886363 0)
(1.04729 0.183389 0)
(1.05544 0.162969 0)
(1.01032 0.168433 0)
(1.06743 0.171147 0)
(0.955021 0.143467 0)
(1.04899 0.158831 0)
(0.890672 0.113182 0)
(1.01369 0.140386 0)
(0.82685 0.0841196 0)
(0.971224 0.117602 0)
(0.770228 0.0609495 0)
(0.928095 0.0942679 0)
(0.722902 0.043743 0)
(0.886271 0.0735286 0)
(0.68473 0.0311754 0)
(0.848348 0.0564591 0)
(0.654868 0.0218695 0)
(0.816091 0.0426541 0)
(0.63233 0.0147974 0)
(0.789697 0.0313259 0)
(0.616043 0.00931081 0)
(0.768962 0.0220233 0)
(0.604984 0.00499208 0)
(0.753439 0.0144021 0)
(0.598275 0.00157378 0)
(0.742537 0.00813199 0)
(0.595188 -0.00108108 0)
(0.735702 0.00297457 0)
(0.595076 -0.00332243 0)
(0.732423 -0.00118372 0)
(0.597433 -0.00546144 0)
(0.732102 -0.00478157 0)
(0.602122 -0.00756678 0)
(0.73441 -0.00820718 0)
(0.60909 -0.00979322 0)
(0.739217 -0.0116181 0)
(0.618421 -0.0123109 0)
(0.746504 -0.015236 0)
(0.63036 -0.015281 0)
(0.7564 -0.0193082 0)
(0.645315 -0.0188599 0)
(0.769184 -0.0240851 0)
(0.663849 -0.023181 0)
(0.785317 -0.0298113 0)
(0.686639 -0.0283465 0)
(0.805426 -0.0366711 0)
(0.714464 -0.0344228 0)
(0.830212 -0.0448216 0)
(0.748152 -0.0414099 0)
(0.860513 -0.0543343 0)
(0.78854 -0.0491905 0)
(0.89727 -0.0651985 0)
(0.83638 -0.0574558 0)
(0.941455 -0.077224 0)
(0.892165 -0.0656159 0)
(0.99396 -0.0899044 0)
(0.955878 -0.0727079 0)
(1.05542 -0.102288 0)
(1.02666 -0.0773165 0)
(1.12593 -0.112836 0)
(1.10236 -0.0775182 0)
(1.20463 -0.119272 0)
(1.17889 -0.0711572 0)
(1.2889 -0.118382 0)
(1.24993 -0.0566663 0)
(1.37367 -0.106817 0)
(1.30789 -0.0338199 0)
(1.45116 -0.0828377 0)
(1.34433 -0.00601694 0)
(1.51266 -0.0460554 0)
(1.35318 0.0226119 0)
(1.54725 -0.00239353 0)
(1.33445 0.0499225 0)
(1.55149 0.0408795 0)
(1.28843 0.0723927 0)
(1.52463 0.0818827 0)
(1.21946 0.0863648 0)
(1.46821 0.114258 0)
(1.1355 0.0906791 0)
(1.38838 0.133417 0)
(1.046 0.0868305 0)
(1.29472 0.137998 0)
(0.959101 0.0778949 0)
(1.19701 0.131101 0)
(0.880392 0.0667455 0)
(1.10368 0.117125 0)
(0.812581 0.0552189 0)
(1.0203 0.100003 0)
(0.756453 0.0443596 0)
(0.949226 0.0822831 0)
(0.711473 0.0347591 0)
(0.891058 0.0656748 0)
(0.67635 0.0266728 0)
(0.844941 0.0511289 0)
(0.649477 0.0201143 0)
(0.809262 0.0390132 0)
(0.629235 0.0149455 0)
(0.782163 0.029296 0)
(0.614178 0.0109588 0)
(0.761858 0.0217107 0)
(0.603096 0.0079397 0)
(0.746815 0.0159027 0)
(0.59501 0.00569322 0)
(0.735779 0.0115345 0)
(0.589145 0.00404527 0)
(0.727733 0.00830436 0)
(0.584912 0.00284693 0)
(0.721885 0.00593964 0)
(0.581875 0.00198263 0)
(0.717651 0.00421634 0)
(0.579706 0.00136531 0)
(0.714601 0.00297138 0)
(0.578166 0.000927994 0)
(0.71241 0.00207854 0)
(0.577078 0.000620831 0)
(0.710841 0.00144127 0)
(0.576315 0.000407107 0)
(0.709723 0.000989177 0)
(0.575783 0.000259757 0)
(0.708929 0.000670414 0)
(0.575417 0.000159287 0)
(0.708369 0.000446963 0)
(0.575168 9.18659e-05 0)
(0.707976 0.000291683 0)
(0.575 4.76377e-05 0)
(0.707704 0.000185011 0)
(0.57489 1.95517e-05 0)
(0.707516 0.000112876 0)
(0.574819 2.539e-06 0)
(0.707388 6.50511e-05 0)
(0.574774 -7.05847e-06 0)
(0.707302 3.41336e-05 0)
(0.574746 -1.17393e-05 0)
(0.707244 1.47564e-05 0)
(0.574731 -1.31843e-05 0)
(0.707207 3.32165e-06 0)
(0.574722 -1.25899e-05 0)
(0.707183 -2.71204e-06 0)
(0.574717 -1.06843e-05 0)
(0.707167 -5.02653e-06 0)
(0.574715 -7.74217e-06 0)
(0.707157 -4.67025e-06 0)
(0.574712 -3.98511e-06 0)
(0.707149 -2.33671e-06 0)
(0.574709 6.72404e-07 0)
(0.707143 1.44474e-06 0)
(0.707132 6.97261e-06 0)
(1.03949 0.111324 0)
(1.00908 0.0491482 0)
(1.08198 0.157724 0)
(1.04737 0.120482 0)
(1.10293 0.165376 0)
(1.08758 0.150189 0)
(1.10552 0.159356 0)
(1.11059 0.156243 0)
(1.09425 0.147144 0)
(1.11693 0.151657 0)
(1.07238 0.129119 0)
(1.11464 0.13947 0)
(1.04354 0.107823 0)
(1.10233 0.123113 0)
(1.01127 0.0867809 0)
(1.08415 0.105797 0)
(0.979445 0.0680579 0)
(1.0627 0.0882852 0)
(0.9507 0.0520768 0)
(1.04071 0.0713993 0)
(0.926164 0.0385272 0)
(1.01971 0.0558622 0)
(0.90623 0.0270817 0)
(1.00083 0.0419575 0)
(0.890869 0.017465 0)
(0.984929 0.0297628 0)
(0.879837 0.00941876 0)
(0.972286 0.019165 0)
(0.872793 0.00273425 0)
(0.962976 0.0100178 0)
(0.869363 -0.00279943 0)
(0.956956 0.00224678 0)
(0.869008 -0.00771298 0)
(0.953981 -0.00442696 0)
(0.871402 -0.0124861 0)
(0.953709 -0.0106007 0)
(0.876512 -0.0173253 0)
(0.956031 -0.0167283 0)
(0.884349 -0.0225328 0)
(0.960944 -0.0230735 0)
(0.895059 -0.0284559 0)
(0.968524 -0.0300179 0)
(0.908971 -0.0354442 0)
(0.97896 -0.0379967 0)
(0.926631 -0.0437987 0)
(0.992651 -0.0474709 0)
(0.948659 -0.0537316 0)
(1.01029 -0.0586994 0)
(0.975842 -0.0653928 0)
(1.03232 -0.0720045 4.01118e-34)
(1.00913 -0.0788716 0)
(1.05976 -0.0876232 -3.96986e-34)
(1.04961 -0.0940909 0)
(1.09373 -0.105674 0)
(1.09841 -0.110644 0)
(1.13557 -0.126024 0)
(1.1566 -0.127641 0)
(1.18673 -0.148096 0)
(1.22497 -0.14352 0)
(1.24867 -0.170662 0)
(1.3037 -0.155813 0)
(1.32268 -0.191565 0)
(1.3916 -0.160844 0)
(1.40949 -0.207169 0)
(1.48475 -0.154173 0)
(1.50707 -0.211532 0)
(1.57618 -0.132265 0)
(1.60904 -0.198251 0)
(1.65771 -0.0931354 0)
(1.70627 -0.164366 0)
(1.71822 -0.0396497 0)
(1.78745 -0.106558 0)
(1.74698 0.0184702 0)
(1.842 -0.0311567 0)
(1.74216 0.074957 0)
(1.8569 0.0457022 0)
(1.70447 0.125646 0)
(1.83777 0.119571 0)
(1.63652 0.162885 0)
(1.7886 0.182202 0)
(1.54656 0.181837 0)
(1.7124 0.22338 0)
(1.44511 0.183076 0)
(1.6138 0.23945 0)
(1.3413 0.171003 0)
(1.50688 0.234917 0)
(1.24327 0.150885 0)
(1.40072 0.215146 0)
(1.15656 0.127377 0)
(1.3032 0.186717 0)
(1.08347 0.103769 0)
(1.21861 0.15537 0)
(1.02419 0.0821176 0)
(1.14855 0.124954 0)
(0.977557 0.0634796 0)
(1.09262 0.0977667 0)
(0.941697 0.0481747 0)
(1.04916 0.0748737 0)
(0.914582 0.03603 0)
(1.01606 0.0564117 0)
(0.894336 0.0266203 0)
(0.9912 0.0419566 0)
(0.87938 0.0194648 0)
(0.972734 0.0308584 0)
(0.86842 0.0141195 0)
(0.959172 0.0224947 0)
(0.860416 0.0101808 0)
(0.949269 0.0163083 0)
(0.854584 0.00729616 0)
(0.94203 0.0117718 0)
(0.850354 0.00519526 0)
(0.936752 0.00844665 0)
(0.847292 0.00367776 0)
(0.932928 0.0060332 0)
(0.845079 0.00258712 0)
(0.930153 0.00429179 0)
(0.843483 0.00180639 0)
(0.928139 0.00303673 0)
(0.842337 0.00125038 0)
(0.926682 0.00213587 0)
(0.841515 0.000856275 0)
(0.92563 0.00149161 0)
(0.84093 0.000578509 0)
(0.924872 0.00103231 0)
(0.840515 0.000384324 0)
(0.924329 0.0007068 0)
(0.840222 0.000249987 0)
(0.923941 0.000477828 0)
(0.840017 0.00015827 0)
(0.923665 0.000318231 0)
(0.839873 9.66121e-05 0)
(0.923469 0.00020809 0)
(0.839775 5.59392e-05 0)
(0.923331 0.000133005 0)
(0.839707 2.98479e-05 0)
(0.923234 8.26064e-05 0)
(0.83966 1.38882e-05 0)
(0.923166 4.96179e-05 0)
(0.839629 4.98898e-06 0)
(0.923119 2.88732e-05 0)
(0.839607 1.10237e-06 0)
(0.923085 1.67483e-05 0)
(0.839591 8.01731e-07 0)
(0.923062 1.08935e-05 0)
(0.83958 3.146e-06 0)
(0.923044 9.41295e-06 0)
(0.83957 7.73121e-06 0)
(0.923032 1.15581e-05 0)
(0.923015 1.61937e-05 0)
(1.01971 0.0666755 0)
(1.0042 0.0294415 0)
(1.05943 0.113451 0)
(1.02713 0.0807583 0)
(1.09574 0.138631 0)
(1.06411 0.113879 0)
(1.12134 0.146482 0)
(1.09767 0.13065 0)
(1.13736 0.143216 0)
(1.12141 0.135636 0)
(1.1444 0.133699 0)
(1.13911 0.132424 0)
(1.14296 0.121457 0)
(1.14761 0.124551 0)
(1.13528 0.10758 0)
(1.15016 0.113479 0)
(1.12369 0.0920392 0)
(1.14841 0.0998799 0)
(1.1096 0.0756405 0)
(1.14186 0.0854871 0)
(1.09427 0.0595997 0)
(1.1331 0.0711912 0)
(1.07942 0.04477 0)
(1.12303 0.0568075 0)
(1.06623 0.0315217 0)
(1.1128 0.0429499 0)
(1.0553 0.0198438 0)
(1.1033 0.0300996 0)
(1.04702 0.00964997 0)
(1.09508 0.0182946 0)
(1.04148 0.000786984 0)
(1.08871 0.00778937 0)
(1.03862 -0.00709974 0)
(1.08439 -0.00156858 0)
(1.03826 -0.014607 0)
(1.08217 -0.0102375 0)
(1.04036 -0.0222191 0)
(1.08205 -0.0188313 0)
(1.04501 -0.0302652 0)
(1.08411 -0.0277185 0)
(1.05229 -0.0392029 0)
(1.08847 -0.0373005 0)
(1.06244 -0.0495715 0)
(1.09524 -0.0481472 0)
(1.07606 -0.061857 0)
(1.10461 -0.0610911 0)
(1.09365 -0.0764658 4.01118e-34)
(1.11757 -0.0762934 0)
(1.11584 -0.0937165 4.49644e-36)
(1.13403 -0.094191 4.01118e-34)
(1.14384 -0.113862 -3.96986e-34)
(1.15575 -0.115621 -3.96986e-34)
(1.17908 -0.137032 0)
(1.18374 -0.14091 0)
(1.22318 -0.162947 0)
(1.21965 -0.170131 0)
(1.27804 -0.190684 0)
(1.26565 -0.202955 0)
(1.34568 -0.218381 0)
(1.32434 -0.238303 0)
(1.42803 -0.242625 0)
(1.39872 -0.273914 0)
(1.52537 -0.257327 0)
(1.49182 -0.304512 0)
(1.63274 -0.25472 0)
(1.59982 -0.318893 0)
(1.74049 -0.229012 0)
(1.71139 -0.306003 0)
(1.83908 -0.176223 0)
(1.81621 -0.262961 0)
(1.91406 -0.0970231 0)
(1.90059 -0.181529 0)
(1.95253 -0.00347883 0)
(1.96005 -0.069633 0)
(1.95312 0.0905015 0)
(1.97068 0.0451209 0)
(1.92212 0.176198 0)
(1.95437 0.150566 0)
(1.86272 0.243337 0)
(1.91578 0.241609 0)
(1.77776 0.282617 0)
(1.85208 0.308335 0)
(1.67493 0.293044 0)
(1.75959 0.342284 0)
(1.56614 0.280192 0)
(1.65628 0.343705 0)
(1.46056 0.251559 0)
(1.55158 0.320728 0)
(1.36508 0.214926 0)
(1.45276 0.2822 0)
(1.28352 0.176532 0)
(1.36516 0.236921 0)
(1.2168 0.140483 0)
(1.29191 0.191676 0)
(1.16406 0.109041 0)
(1.23301 0.15051 0)
(1.12338 0.0830194 0)
(1.18703 0.115556 0)
(1.09254 0.0622789 0)
(1.15187 0.0872495 0)
(1.06948 0.0461623 0)
(1.12541 0.0650207 0)
(1.05243 0.0338732 0)
(1.10573 0.0479003 0)
(1.03996 0.0246839 0)
(1.0913 0.0349674 0)
(1.03084 0.0179134 0)
(1.08078 0.0254314 0)
(1.02416 0.0129394 0)
(1.07308 0.0184504 0)
(1.01931 0.00930119 0)
(1.06744 0.0132993 0)
(1.01578 0.00666391 0)
(1.06337 0.00956233 0)
(1.01321 0.00475636 0)
(1.0604 0.0068637 0)
(1.01133 0.00337843 0)
(1.05823 0.0049079 0)
(1.00997 0.00238679 0)
(1.05664 0.00349614 0)
(1.00899 0.00167527 0)
(1.05549 0.00247886 0)
(1.00827 0.00116671 0)
(1.05465 0.00174682 0)
(1.00776 0.000805326 0)
(1.05404 0.00122255 0)
(1.00739 0.000550234 0)
(1.0536 0.000849215 0)
(1.00712 0.000371493 0)
(1.05328 0.000584963 0)
(1.00693 0.000247312 0)
(1.05305 0.00039908 0)
(1.00679 0.000161971 0)
(1.05288 0.00026932 0)
(1.00669 0.000104205 0)
(1.05277 0.000179661 0)
(1.00663 6.60087e-05 0)
(1.05268 0.000118615 0)
(1.00658 4.16679e-05 0)
(1.05262 7.80006e-05 0)
(1.00654 2.72738e-05 0)
(1.05257 5.18897e-05 0)
(1.00652 1.99753e-05 0)
(1.05254 3.64957e-05 0)
(1.0065 1.80613e-05 0)
(1.05252 2.84026e-05 0)
(1.00648 2.00742e-05 0)
(1.0525 2.68876e-05 0)
(1.05248 2.83737e-05 0)
(1.01043 0.0442448 0)
(1.00232 0.0190146 0)
(1.03611 0.0803323 0)
(1.01544 0.0550716 0)
(1.06742 0.10506 0)
(1.04073 0.0825772 0)
(1.09761 0.119067 0)
(1.07002 0.100457 0)
(1.12306 0.124098 0)
(1.09702 0.110182 0)
(1.1422 0.122617 0)
(1.12028 0.113287 0)
(1.15518 0.116375 0)
(1.13855 0.111575 0)
(1.163 0.106161 0)
(1.15211 0.105657 0)
(1.1663 0.0939761 0)
(1.16185 0.0965824 0)
(1.16546 0.0815931 0)
(1.16636 0.0863203 0)
(1.16177 0.0688294 0)
(1.16799 0.0748803 0)
(1.15628 0.0554747 0)
(1.16724 0.0623067 0)
(1.14977 0.0420852 0)
(1.16408 0.0494516 0)
(1.14297 0.0290688 0)
(1.16002 0.0369043 0)
(1.1367 0.0168297 0)
(1.15545 0.024562 0)
(1.13154 0.00571013 0)
(1.15113 0.0129532 0)
(1.12785 -0.00446428 0)
(1.14746 0.00211862 0)
(1.12589 -0.0141925 0)
(1.14476 -0.00827869 0)
(1.12571 -0.0240334 0)
(1.14328 -0.0186516 0)
(1.12748 -0.0344443 0)
(1.14319 -0.0294835 0)
(1.13131 -0.0459667 0)
(1.14467 -0.0411377 0)
(1.13726 -0.0594351 0)
(1.14785 -0.0540972 0)
(1.1458 -0.0751941 0)
(1.15266 -0.0696263 0)
(1.15763 -0.0935047 0)
(1.16034 -0.0881207 0)
(1.1736 -0.115588 0)
(1.17095 -0.110161 0)
(1.19506 -0.142295 0)
(1.18615 -0.137085 0)
(1.22355 -0.173779 0)
(1.20699 -0.169393 0)
(1.26119 -0.210123 0)
(1.23544 -0.207777 0)
(1.31088 -0.250871 0)
(1.27435 -0.252642 0)
(1.37622 -0.294505 0)
(1.32738 -0.303642 0)
(1.4615 -0.336614 0)
(1.39975 -0.359195 0)
(1.56695 -0.367401 0)
(1.49551 -0.409957 0)
(1.68017 -0.373538 0)
(1.60114 -0.432119 0)
(1.78908 -0.348435 0)
(1.69478 -0.414906 0)
(1.88401 -0.278834 0)
(1.77273 -0.357896 0)
(1.94925 -0.16071 0)
(1.81054 -0.246768 0)
(1.97691 -0.0248823 0)
(1.81523 -0.0972973 0)
(1.97316 0.101768 0)
(1.80299 0.0488752 0)
(1.94861 0.212913 0)
(1.80425 0.175119 0)
(1.90202 0.303459 0)
(1.80346 0.288197 0)
(1.83107 0.364848 0)
(1.77908 0.379288 0)
(1.73972 0.390565 0)
(1.72511 0.433631 0)
(1.64148 0.382803 0)
(1.65038 0.441945 0)
(1.54388 0.350828 0)
(1.56921 0.418325 0)
(1.45302 0.304512 0)
(1.48703 0.373069 0)
(1.37372 0.252679 0)
(1.40958 0.31622 0)
(1.30817 0.202193 0)
(1.34252 0.257224 0)
(1.25599 0.157476 0)
(1.28804 0.202689 0)
(1.21549 0.120159 0)
(1.24534 0.156057 0)
(1.18467 0.0902851 0)
(1.2127 0.118071 0)
(1.16158 0.0670034 0)
(1.18821 0.0881114 0)
(1.14451 0.0492152 0)
(1.17004 0.0649649 0)
(1.13209 0.0358959 0)
(1.15671 0.047387 0)
(1.12299 0.0260819 0)
(1.14697 0.0345374 0)
(1.11631 0.0188755 0)
(1.13999 0.0251295 0)
(1.11149 0.0136126 0)
(1.13485 0.0181176 0)
(1.10798 0.00981196 0)
(1.13115 0.0130725 0)
(1.10541 0.00706058 0)
(1.12845 0.00943577 0)
(1.10353 0.00506519 0)
(1.12645 0.00678648 0)
(1.10216 0.00362086 0)
(1.12499 0.0048703 0)
(1.10115 0.00257575 0)
(1.12391 0.00348284 0)
(1.10042 0.00182177 0)
(1.12313 0.00247899 0)
(1.09989 0.00128074 0)
(1.12256 0.00175615 0)
(1.0995 0.000894634 0)
(1.12214 0.00123786 0)
(1.09921 0.000620518 0)
(1.12183 0.000867813 0)
(1.09901 0.000427016 0)
(1.12161 0.000604634 0)
(1.09886 0.000291429 0)
(1.12145 0.00041846 0)
(1.09875 0.000197372 0)
(1.12133 0.000287773 0)
(1.09867 0.000133067 0)
(1.12124 0.000196962 0)
(1.09862 9.00331e-05 0)
(1.12118 0.000134854 0)
(1.09857 6.24061e-05 0)
(1.12113 9.32249e-05 0)
(1.09854 4.57907e-05 0)
(1.1211 6.68355e-05 0)
(1.09852 3.77445e-05 0)
(1.12107 5.07374e-05 0)
(1.0985 3.54304e-05 0)
(1.12106 4.44582e-05 0)
(1.12104 4.13703e-05 0)
(1.00594 0.0306879 0)
(1.00138 0.0130698 0)
(1.02221 0.0575025 0)
(1.00943 0.038804 0)
(1.04469 0.0778355 0)
(1.0263 0.0601004 0)
(1.06961 0.0914612 0)
(1.04804 0.0755358 0)
(1.09425 0.0992254 0)
(1.07094 0.0855448 0)
(1.1166 0.102064 0)
(1.09315 0.090932 0)
(1.13572 0.100698 0)
(1.11346 0.0924619 0)
(1.15085 0.0958114 0)
(1.13119 0.0905266 0)
(1.16175 0.0885415 0)
(1.14563 0.08568 0)
(1.16904 0.079454 0)
(1.15653 0.0790271 0)
(1.17332 0.0685937 0)
(1.16448 0.0706044 0)
(1.17494 0.056672 0)
(1.16993 0.0606823 0)
(1.17433 0.0445516 0)
(1.17237 0.050065 0)
(1.17242 0.0325557 0)
(1.17329 0.0388089 0)
(1.16983 0.0208555 0)
(1.17245 0.0271546 0)
(1.16698 0.00956994 0)
(1.1709 0.0158016 0)
(1.16427 -0.00146287 0)
(1.16899 0.00483104 0)
(1.1621 -0.0124755 0)
(1.16693 -0.00610389 0)
(1.16071 -0.0238287 0)
(1.16509 -0.0172615 0)
(1.16031 -0.0358769 0)
(1.16368 -0.029085 0)
(1.16109 -0.0488848 0)
(1.16287 -0.0419158 0)
(1.16315 -0.0638067 0)
(1.16291 -0.0561592 0)
(1.16689 -0.0820939 0)
(1.16394 -0.0733666 0)
(1.1733 -0.104385 0)
(1.1666 -0.0945267 0)
(1.18316 -0.131248 0)
(1.1714 -0.120021 0)
(1.19742 -0.163791 0)
(1.17931 -0.151353 0)
(1.21794 -0.203139 0)
(1.19167 -0.189914 0)
(1.24733 -0.250298 0)
(1.21057 -0.237166 0)
(1.28925 -0.30585 0)
(1.23912 -0.294559 0)
(1.34871 -0.369526 0)
(1.28146 -0.363102 0)
(1.43256 -0.4352 0)
(1.34433 -0.443044 0)
(1.53147 -0.480765 0)
(1.42603 -0.508864 0)
(1.61881 -0.481904 0)
(1.49923 -0.519459 0)
(1.67449 -0.442701 0)
(1.47867 -0.470591 0)
(1.7154 -0.354703 0)
(1.43144 -0.398807 0)
(1.68124 -0.205505 0)
(1.32634 -0.212601 0)
(1.63487 -0.0376679 0)
(1.20274 -0.0509314 1.48175e-18)
(1.63634 0.111164 0)
(1.18445 0.0474033 -7.89622e-19)
(1.66035 0.245303 0)
(1.2435 0.15111 6.20138e-20)
(1.67519 0.362508 0)
(1.30212 0.273359 0)
(1.6699 0.445764 0)
(1.40456 0.384578 0)
(1.63299 0.482745 0)
(1.47088 0.470536 0)
(1.57739 0.476334 0)
(1.47881 0.497549 0)
(1.51297 0.439865 0)
(1.45451 0.48275 0)
(1.44394 0.384569 0)
(1.41551 0.442098 0)
(1.37878 0.320967 0)
(1.36781 0.381372 0)
(1.32273 0.257907 0)
(1.32041 0.313279 0)
(1.27764 0.201509 0)
(1.27961 0.247776 0)
(1.24267 0.154221 0)
(1.24723 0.191029 0)
(1.21626 0.116147 0)
(1.22237 0.144481 0)
(1.19665 0.0862937 0)
(1.20372 0.107728 0)
(1.18219 0.063307 0)
(1.18997 0.0794154 0)
(1.17161 0.0461436 0)
(1.17989 0.057971 0)
(1.16392 0.0336897 0)
(1.17253 0.0422233 0)
(1.15846 0.0245064 0)
(1.16736 0.0305963 0)
(1.15452 0.0176987 0)
(1.16355 0.0220528 0)
(1.15161 0.0127576 0)
(1.16093 0.0159813 0)
(1.14947 0.00917921 0)
(1.15902 0.0115774 0)
(1.1479 0.00659627 0)
(1.15759 0.00835746 0)
(1.14674 0.00473855 0)
(1.15654 0.00603163 0)
(1.14589 0.00339648 0)
(1.15574 0.00433481 0)
(1.14526 0.00242563 0)
(1.15516 0.0031022 0)
(1.14481 0.00172504 0)
(1.15472 0.00221265 0)
(1.14447 0.0012213 0)
(1.1544 0.00157253 0)
(1.14423 0.00086028 0)
(1.15417 0.0011135 0)
(1.14405 0.000602598 0)
(1.154 0.000784857 0)
(1.14391 0.000419796 0)
(1.15387 0.000550699 0)
(1.14382 0.000291146 0)
(1.15378 0.000384813 0)
(1.14375 0.000201589 0)
(1.15371 0.000268243 0)
(1.14369 0.000140146 0)
(1.15365 0.000187253 0)
(1.14366 9.91643e-05 0)
(1.15362 0.000131733 0)
(1.14363 7.28165e-05 0)
(1.15359 9.5213e-05 0)
(1.14361 5.81005e-05 0)
(1.15357 7.14958e-05 0)
(1.14359 5.07361e-05 0)
(1.15355 6.04025e-05 0)
(1.15354 5.25427e-05 0)
(1.00373 0.021868 0)
(1.00091 0.00933591 0)
(1.01459 0.0417296 0)
(1.0063 0.0279475 0)
(1.03063 0.0577575 0)
(1.01807 0.0440615 0)
(1.04966 0.0694366 0)
(1.03409 0.0565008 0)
(1.06993 0.077064 0)
(1.05214 0.0652809 0)
(1.09006 0.0811518 0)
(1.07084 0.0708057 0)
(1.10905 0.0821179 0)
(1.08928 0.0734651 0)
(1.12603 0.0803249 0)
(1.1067 0.0735515 0)
(1.14034 0.0762477 0)
(1.1223 0.0713709 0)
(1.15202 0.0702694 0)
(1.13572 0.0673478 0)
(1.16101 0.0626161 0)
(1.14687 0.0616155 0)
(1.16736 0.0538456 0)
(1.15569 0.054332 0)
(1.17132 0.044186 0)
(1.16203 0.0460979 0)
(1.17324 0.0334827 0)
(1.16651 0.03689 0)
(1.17351 0.0222554 0)
(1.16879 0.0268816 0)
(1.17285 0.0112094 0)
(1.16965 0.0164686 0)
(1.17158 0.000355582 0)
(1.16942 0.00610137 0)
(1.1699 -0.0106982 0)
(1.16826 -0.00442752 0)
(1.16805 -0.0223093 0)
(1.16651 -0.0154101 0)
(1.1662 -0.0348691 0)
(1.16431 -0.0272309 0)
(1.16456 -0.0488674 0)
(1.16178 -0.0402843 0)
(1.1636 -0.0653254 0)
(1.15914 -0.0551948 0)
(1.16346 -0.085357 0)
(1.1567 -0.0732274 0)
(1.16436 -0.109707 0)
(1.15443 -0.0954269 0)
(1.16713 -0.139629 0)
(1.15272 -0.122789 6.67521e-33)
(1.17284 -0.176903 0)
(1.15234 -0.157063 -6.62856e-33)
(1.18318 -0.223353 0)
(1.15438 -0.200249 0)
(1.20068 -0.280983 0)
(1.16054 -0.254669 0)
(1.22905 -0.351807 0)
(1.17337 -0.322932 0)
(1.27328 -0.437458 0)
(1.19636 -0.407336 0)
(1.33858 -0.5198 0)
(1.23401 -0.508343 0)
(1.39376 -0.551785 0)
(1.26493 -0.564046 0)
(1.38737 -0.50337 0)
(1.24336 -0.513063 6.95804e-19)
(1.21287 -0.388082 0)
(1.0593 -0.296092 0)
(1.09024 -0.21291 0)
(0.57857 0.367434 0)
(0.864008 -0.0562843 1.48175e-18)
(0.475764 0.208491 0)
(0.746918 0.0098082 6.92129e-19)
(0.375623 0.0846228 1.48175e-18)
(0.797668 0.0534162 -7.27608e-19)
(0.371476 0.0573348 -7.89622e-19)
(0.899647 0.11727 6.20138e-20)
(0.421555 0.0399596 6.20138e-20)
(1.0224 0.238645 0)
(0.464618 0.0255713 0)
(1.20039 0.388356 0)
(0.888434 0.206592 0)
(1.31332 0.475318 0)
(1.05128 0.357608 0)
(1.35432 0.498469 0)
(1.17739 0.456542 0)
(1.3581 0.481898 0)
(1.23178 0.478976 0)
(1.34001 0.437026 0)
(1.25243 0.460187 0)
(1.3099 0.372521 0)
(1.25294 0.411482 0)
(1.27788 0.302528 0)
(1.24063 0.345295 0)
(1.24973 0.237043 0)
(1.22482 0.275927 0)
(1.22723 0.181257 0)
(1.21068 0.213534 0)
(1.20997 0.136144 0)
(1.19927 0.161742 0)
(1.1971 0.100951 0)
(1.1905 0.120596 0)
(1.18768 0.0741475 0)
(1.18399 0.088834 0)
(1.18083 0.0541201 0)
(1.17925 0.0648156 0)
(1.17591 0.0392327 0)
(1.17586 0.0471514 0)
(1.17241 0.0282265 0)
(1.17345 0.03409 0)
(1.16999 0.0203805 0)
(1.17174 0.0244796 0)
(1.16831 0.0148583 0)
(1.17061 0.0176608 0)
(1.16712 0.0108331 0)
(1.16984 0.0127616 0)
(1.16623 0.00785297 0)
(1.16928 0.00925051 0)
(1.16553 0.00565969 0)
(1.16887 0.00672743 0)
(1.16501 0.00405407 0)
(1.16855 0.00486218 0)
(1.16461 0.00289315 0)
(1.1683 0.00349728 0)
(1.16432 0.00206093 0)
(1.16811 0.00250535 0)
(1.1641 0.00146583 0)
(1.16796 0.00179023 0)
(1.16394 0.00104022 0)
(1.16785 0.00127541 0)
(1.16382 0.00073581 0)
(1.16776 0.000904629 0)
(1.16373 0.00051865 0)
(1.1677 0.000639692 0)
(1.16366 0.000364569 0)
(1.16764 0.000450984 0)
(1.16361 0.000256147 0)
(1.16761 0.000317597 0)
(1.16358 0.000180629 0)
(1.16758 0.000224078 0)
(1.16355 0.000129141 0)
(1.16756 0.000159079 0)
(1.16353 9.48747e-05 0)
(1.16754 0.000115412 0)
(1.16351 7.44277e-05 0)
(1.16753 8.61552e-05 0)
(1.1635 6.2503e-05 0)
(1.16752 7.11581e-05 0)
(1.16751 5.93863e-05 0)
(1.0026 0.0158181 0)
(1.00066 0.00673963 0)
(1.01034 0.0305057 0)
(1.00457 0.0202045 0)
(1.0222 0.0428201 0)
(1.01329 0.0321987 0)
(1.03687 0.0522442 0)
(1.02554 0.0418376 0)
(1.05317 0.0588681 0)
(1.03987 0.0489752 0)
(1.07016 0.0629557 0)
(1.05534 0.0538201 0)
(1.08701 0.0647503 0)
(1.07123 0.056611 0)
(1.10303 0.0644703 0)
(1.08694 0.0575334 0)
(1.11766 0.062355 0)
(1.10182 0.0567433 0)
(1.13059 0.0585937 0)
(1.11546 0.0544139 0)
(1.14156 0.0533137 0)
(1.12757 0.0506419 0)
(1.15037 0.046713 0)
(1.13789 0.0455232 0)
(1.15718 0.0389855 0)
(1.14627 0.0392935 0)
(1.16204 0.0303869 0)
(1.15283 0.0320236 0)
(1.16497 0.0211421 0)
(1.15744 0.0239581 0)
(1.16617 0.0114321 0)
(1.16021 0.0152707 0)
(1.16606 0.00141821 0)
(1.16131 0.00620929 0)
(1.16488 -0.00900695 0)
(1.16096 -0.00325197 0)
(1.16279 -0.0201499 0)
(1.15933 -0.0133119 0)
(1.15986 -0.0324214 0)
(1.1565 -0.0243069 0)
(1.15626 -0.0463717 0)
(1.15251 -0.0366844 0)
(1.15218 -0.0628526 0)
(1.14741 -0.0511097 0)
(1.14756 -0.0829895 0)
(1.1412 -0.068615 0)
(1.14251 -0.108053 6.67521e-33)
(1.13376 -0.0903748 0)
(1.1375 -0.139605 5.27112e-35)
(1.12511 -0.117778 6.67521e-33)
(1.13316 -0.179651 -6.62856e-33)
(1.11547 -0.152724 -6.62856e-33)
(1.13053 -0.230687 0)
(1.10524 -0.197621 0)
(1.13124 -0.295708 0)
(1.09502 -0.255376 0)
(1.13773 -0.377838 0)
(1.08573 -0.329421 0)
(1.15244 -0.477701 0)
(1.07949 -0.422045 0)
(1.16305 -0.551498 0)
(1.06586 -0.518958 0)
(1.11159 -0.518533 6.95804e-19)
(1.01393 -0.512586 4.47465e-19)
(0.980815 -0.320755 6.95804e-19)
(0.869631 -0.334353 -2.03624e-18)
(0.968475 -0.0877955 0)
(0.407446 0.215909 0)
(0.46743 0 0)
(0 -0.0573876 0)
(0.223131 0 0)
(0 -0.0166968 0)
(0.191281 0 0)
(0 0.0018961 0)
(0.214248 0 0)
(0 0.00957478 0)
(0.280482 0 0)
(0 0.0170096 0)
(0.572793 0.0475618 0)
(0 0.0225256 0)
(0.729173 0.179743 0)
(0.325042 0.0224871 0)
(0.909613 0.336081 0)
(0.695234 0.16812 0)
(1.05137 0.432945 0)
(0.854255 0.31479 0)
(1.12659 0.455492 0)
(0.977452 0.403748 0)
(1.16671 0.433741 0)
(1.04838 0.42007 0)
(1.18421 0.383746 0)
(1.09603 0.39398 0)
(1.18832 0.318559 0)
(1.12463 0.341185 0)
(1.18653 0.25242 0)
(1.14082 0.277715 0)
(1.18324 0.194006 0)
(1.15052 0.216833 0)
(1.18007 0.146139 0)
(1.15684 0.164913 0)
(1.17752 0.108446 0)
(1.16116 0.123145 0)
(1.17562 0.07954 0)
(1.16423 0.0907295 0)
(1.17427 0.0579228 0)
(1.16648 0.0661683 0)
(1.17337 0.0420294 0)
(1.16815 0.0480442 0)
(1.17277 0.0303027 0)
(1.16943 0.034692 0)
(1.17235 0.0217458 0)
(1.17039 0.0248972 0)
(1.1721 0.0155901 0)
(1.17108 0.0179113 0)
(1.17199 0.0112096 0)
(1.17161 0.0128783 0)
(1.17193 0.00816002 0)
(1.17203 0.00930852 0)
(1.17188 0.00597024 0)
(1.17235 0.00677582 0)
(1.17183 0.00434397 0)
(1.17258 0.00491431 0)
(1.17178 0.00314195 0)
(1.17275 0.00354243 0)
(1.17175 0.00225655 0)
(1.17286 0.00254189 0)
(1.17171 0.00161201 0)
(1.17293 0.00183001 0)
(1.17167 0.0011464 0)
(1.17297 0.00131274 0)
(1.17164 0.000811892 0)
(1.173 0.000937261 0)
(1.17161 0.000573886 0)
(1.17301 0.000666752 0)
(1.17159 0.000405259 0)
(1.17302 0.000472789 0)
(1.17157 0.000286447 0)
(1.17302 0.000335075 0)
(1.17156 0.000203272 0)
(1.17302 0.000237934 0)
(1.17155 0.00014599 0)
(1.17302 0.000169686 0)
(1.17154 0.000107203 0)
(1.17302 0.00012325 0)
(1.17153 8.32208e-05 0)
(1.17302 9.16764e-05 0)
(1.17153 6.82287e-05 0)
(1.17302 7.47416e-05 0)
(1.17302 6.04869e-05 0)
(1.00196 0.0113712 0)
(1.00052 0.00477856 0)
(1.00784 0.0220626 0)
(1.00356 0.0143212 0)
(1.01707 0.0312613 0)
(1.01042 0.0229726 0)
(1.02878 0.0385357 0)
(1.02024 0.0301234 0)
(1.04217 0.0438603 0)
(1.03204 0.035595 0)
(1.05652 0.047388 0)
(1.0451 0.0394662 0)
(1.07125 0.04929 0)
(1.05887 0.0418851 0)
(1.08578 0.0496966 0)
(1.07289 0.042995 0)
(1.09964 0.0487062 0)
(1.08666 0.0428824 0)
(1.11246 0.0463895 0)
(1.09975 0.0416006 0)
(1.12392 0.0428029 0)
(1.11183 0.039185 0)
(1.13377 0.0380481 0)
(1.12262 0.0356693 0)
(1.14192 0.0322561 0)
(1.13188 0.0311429 0)
(1.14825 0.0255618 0)
(1.13946 0.0256969 0)
(1.15272 0.0181203 0)
(1.14525 0.0194869 0)
(1.15534 0.0101052 0)
(1.14918 0.012648 0)
(1.1562 0.00160865 0)
(1.15123 0.00534661 0)
(1.15543 -0.00745909 0)
(1.15144 -0.00247924 0)
(1.15308 -0.0173416 0)
(1.14983 -0.0109618 0)
(1.14916 -0.0284114 0)
(1.14637 -0.0203839 0)
(1.14364 -0.041214 0)
(1.14099 -0.0311627 0)
(1.13644 -0.0565638 0)
(1.13352 -0.0439136 0)
(1.12736 -0.0755493 0)
(1.12372 -0.0595373 0)
(1.11619 -0.0995056 0)
(1.11117 -0.0791966 0)
(1.10276 -0.13014 0)
(1.09542 -0.104351 8.78279e-34)
(1.08694 -0.169686 0)
(1.07593 -0.136906 -8.77249e-34)
(1.06862 -0.220902 0)
(1.05209 -0.179304 0)
(1.04758 -0.287026 0)
(1.0229 -0.234336 0)
(1.02318 -0.370042 0)
(0.987476 -0.305014 0)
(0.989989 -0.459247 0)
(0.942678 -0.388858 0)
(0.9255 -0.471599 4.47465e-19)
(0.868787 -0.454469 0)
(0.788302 -0.311646 -2.28458e-18)
(0.755383 -0.354757 4.47465e-19)
(0.953154 -0.0913762 -2.73205e-18)
(0.335685 0.255755 -2.73205e-18)
(0.196716 0 0)
(0 -0.0340316 0)
(0.00161815 0 0)
(0 6.20927e-05 0)
(0.00348348 0 0)
(0 9.56731e-05 0)
(0.00913493 0 0)
(0 4.97263e-05 0)
(0.0272573 0 0)
(0 0.000571983 0)
(0.0839393 0 0)
(0 0.00099066 0)
(0.20963 0 0)
(0 0.00320291 0)
(0.432273 0.0380811 0)
(0 0.00701722 0)
(0.618344 0.151739 0)
(0.284514 0.0395711 0)
(0.778924 0.288792 0)