# vtk DataFile Version 2.0
sampleSurface
ASCII
DATASET POLYDATA
POINTS 4338 double
-0.000152 0 0.001
-0.000152 0 -0.001
0 -0.00025 0.001
0 -0.00025 -0.001
-0.000456 0 -0.001
-0.000456 0 0.001
0 -0.0005 0.001
0 -0.0005 -0.001
0 -0.00075 0.001
0 -0.00075 -0.001
-0.00076 0 -0.001
-0.00076 0 0.001
0 -0.001 0.001
0 -0.001 -0.001
-0.001064 0 -0.001
-0.001064 0 0.001
0 -0.00125 0.001
0 -0.00125 -0.001
-0.001368 0 -0.001
-0.001368 0 0.001
0 -0.0015 0.001
0 -0.0015 -0.001
-0.001672 0 -0.001
-0.001672 0 0.001
0 -0.00175 0.001
0 -0.00175 -0.001
-0.001976 0 -0.001
-0.001976 0 0.001
0 -0.002 0.001
0 -0.002 -0.001
0 -0.00225 0.001
0 -0.00225 -0.001
-0.00228 0 -0.001
-0.00228 0 0.001
0 -0.0025 0.001
0 -0.0025 -0.001
-0.002584 0 -0.001
-0.002584 0 0.001
0 -0.00275 0.001
0 -0.00275 -0.001
-0.002888 0 -0.001
-0.002888 0 0.001
0 -0.003 0.001
0 -0.003 -0.001
-0.003192 0 -0.001
-0.003192 0 0.001
0 -0.00325 0.001
0 -0.00325 -0.001
-0.003496 0 -0.001
-0.003496 0 0.001
0 -0.0035 0.001
0 -0.0035 -0.001
0 -0.00375 0.001
0 -0.00375 -0.001
-0.0038 0 -0.001
-0.0038 0 0.001
0 -0.004 0.001
0 -0.004 -0.001
-0.004104 0 -0.001
-0.004104 0 0.001
0 -0.00425 0.001
0 -0.00425 -0.001
-0.004408 0 -0.001
-0.004408 0 0.001
0 -0.0045 0.001
0 -0.0045 -0.001
-0.004712 0 -0.001
-0.004712 0 0.001
0 -0.00475 0.001
0 -0.00475 -0.001
0 -0.005 0.001
0 -0.005 -0.001
-0.005016 0 -0.001
-0.005016 0 0.001
0 -0.00525 0.001
0 -0.00525 -0.001
-0.00532 0 -0.001
-0.00532 0 0.001
0 -0.0055 0.001
0 -0.0055 -0.001
-0.005624 0 -0.001
-0.005624 0 0.001
0 -0.00575 0.001
0 -0.00575 -0.001
-0.005928 0 -0.001
-0.005928 0 0.001
0 -0.006 0.001
0 -0.006 -0.001
-0.006232 0 -0.001
-0.006232 0 0.001
0 -0.00625 0.001
0 -0.00625 -0.001
0 -0.0065 0.001
0 -0.0065 -0.001
-0.006536 0 -0.001
-0.006536 0 0.001
0 -0.00675 0.001
0 -0.00675 -0.001
-0.00684 0 -0.001
-0.00684 0 0.001
0 -0.007 0.001
0 -0.007 -0.001
-0.007144 0 -0.001
-0.007144 0 0.001
0 -0.00725 0.001
0 -0.00725 -0.001
-0.007448 0 -0.001
-0.007448 0 0.001
0 -0.0075 0.001
0 -0.0075 -0.001
0 -0.00775 0.001
0 -0.00775 -0.001
-0.007752 0 -0.001
-0.007752 0 0.001
0 -0.008 0.001
0 -0.008 -0.001
-0.008056 0 -0.001
-0.008056 0 0.001
0 -0.00825 0.001
0 -0.00825 -0.001
-0.00836 0 -0.001
-0.00836 0 0.001
0 -0.0085 0.001
0 -0.0085 -0.001
-0.008664 0 -0.001
-0.008664 0 0.001
0 -0.00875 0.001
0 -0.00875 -0.001
-0.008968 0 -0.001
-0.008968 0 0.001
0 -0.009 0.001
0 -0.009 -0.001
0 -0.00925 0.001
0 -0.00925 -0.001
-0.009272 0 -0.001
-0.009272 0 0.001
0 -0.0095 0.001
0 -0.0095 -0.001
-0.009576 0 -0.001
-0.009576 0 0.001
0 -0.00975 0.001
0 -0.00975 -0.001
-0.00988 0 -0.001
-0.00988 0 0.001
0 -0.01 0.001
0 -0.01 -0.001
-0.010184 0 -0.001
-0.010184 0 0.001
0 -0.01025 0.001
0 -0.01025 -0.001
-0.010488 0 -0.001
-0.010488 0 0.001
0 -0.0105 0.001
0 -0.0105 -0.001
0 -0.01075 0.001
0 -0.01075 -0.001
-0.010792 -5.78241e-19 -0.001
-0.010792 -5.78241e-19 0.001
0 -0.011 0.001
0 -0.011 -0.001
-0.011096 0 -0.001
-0.011096 0 0.001
0 -0.01125 0.001
0 -0.01125 -0.001
-0.0114 0 -0.001
-0.0114 0 0.001
0 -0.0115 0.001
0 -0.0115 -0.001
-0.011704 0 -0.001
-0.011704 0 0.001
0 -0.01175 0.001
0 -0.01175 -0.001
0 -0.012 0.001
0 -0.012 -0.001
-0.012008 0 -0.001
-0.012008 0 0.001
0 -0.01225 0.001
0 -0.01225 -0.001
-0.012312 0 -0.001
-0.012312 0 0.001
0 -0.0125 0.001
0 -0.0125 -0.001
-0.012616 0 -0.001
-0.012616 0 0.001
0 -0.01275 0.001
0 -0.01275 -0.001
-0.01292 0 -0.001
-0.01292 0 0.001
0 -0.013 0.001
0 -0.013 -0.001
-0.013224 0 -0.001
-0.013224 0 0.001
0 -0.01325 0.001
0 -0.01325 -0.001
0 -0.0135 0.001
0 -0.0135 -0.001
-0.013528 0 -0.001
-0.013528 0 0.001
0 -0.01375 0.001
0 -0.01375 -0.001
-0.013832 0 -0.001
-0.013832 0 0.001
0 -0.014 0.001
0 -0.014 -0.001
-0.014136 0 -0.001
-0.014136 0 0.001
0 -0.01425 0.001
0 -0.01425 -0.001
-0.01444 0 -0.001
-0.01444 0 0.001
0 -0.0145 0.001
0 -0.0145 -0.001
-0.014744 0 -0.001
-0.014744 0 0.001
0 -0.01475 0.001
0 -0.01475 -0.001
0 -0.015 0.001
0 -0.015 -0.001
-0.015048 0 -0.001
-0.015048 0 0.001
0 -0.01525 0.001
0 -0.01525 -0.001
-0.015352 0 -0.001
-0.015352 0 0.001
0 -0.0155 0.001
0 -0.0155 -0.001
-0.015656 0 -0.001
-0.015656 0 0.001
0 -0.01575 0.001
0 -0.01575 -0.001
-0.01596 0 -0.001
-0.01596 0 0.001
0 -0.016 0.001
0 -0.016 -0.001
0 -0.01625 0.001
0 -0.01625 -0.001
-0.016264 0 -0.001
-0.016264 0 0.001
0 -0.0165 0.001
0 -0.0165 -0.001
-0.016568 0 -0.001
-0.016568 0 0.001
0 -0.01675 0.001
0 -0.01675 -0.001
-0.016872 0 -0.001
-0.016872 0 0.001
0 -0.017 0.001
0 -0.017 -0.001
-0.017176 0 -0.001
-0.017176 0 0.001
0 -0.01725 0.001
0 -0.01725 -0.001
-0.01748 0 -0.001
-0.01748 0 0.001
0 -0.0175 0.001
0 -0.0175 -0.001
0 -0.01775 0.001
0 -0.01775 -0.001
-0.017784 0 -0.001
-0.017784 0 0.001
0 -0.018 0.001
0 -0.018 -0.001
-0.018088 0 -0.001
-0.018088 0 0.001
0 -0.01825 0.001
0 -0.01825 -0.001
-0.018392 0 -0.001
-0.018392 0 0.001
0 -0.0185 0.001
0 -0.0185 -0.001
-0.018696 0 -0.001
-0.018696 0 0.001
0 -0.01875 0.001
0 -0.01875 -0.001
0 -0.019 0.001
0 -0.019 -0.001
-0.019 0 -0.001
-0.019 0 0.001
0 -0.01925 0.001
0 -0.01925 -0.001
0 -0.0195 0.001
0 -0.0195 -0.001
0 -0.01975 0.001
0 -0.01975 -0.001
0 -0.02 0.001
0 -0.02 -0.001
0 -0.02025 0.001
0 -0.02025 -0.001
0 -0.0205 0.001
0 -0.0205 -0.001
0 -0.02075 0.001
0 -0.02075 -0.001
0 -0.021 0.001
0 -0.021 -0.001
0 -0.02125 0.001
0 -0.02125 -0.001
0 -0.0215 0.001
0 -0.0215 -0.001
0 -0.02175 0.001
0 -0.02175 -0.001
0 -0.022 0.001
0 -0.022 -0.001
0 -0.02225 0.001
0 -0.02225 -0.001
0 -0.0225 0.001
0 -0.0225 -0.001
0 -0.02275 0.001
0 -0.02275 -0.001
0 -0.023 0.001
0 -0.023 -0.001
0 -0.02325 0.001
0 -0.02325 -0.001
0 -0.0235 0.001
0 -0.0235 -0.001
0 -0.02375 0.001
0 -0.02375 -0.001
0 -0.024 0.001
0 -0.024 -0.001
0 -0.02425 0.001
0 -0.02425 -0.001
0 -0.0245 0.001
0 -0.0245 -0.001
0 -0.02475 0.001
0 -0.02475 -0.001
0 -0.025 0.001
0 -0.025 -0.001
1.00662e-06 -0.02525 0.001
1.00662e-06 -0.02525 -0.001
0.000152 -0.0254 -0.001
0.000152 -0.0254 0.001
-0.000152 0.0254 0.001
-0.000152 0.0254 -0.001
0.000152 0.0254 0.001
0.000152 0.0254 -0.001
0.000456 -0.0254 0.001
0.000456 -0.0254 -0.001
-0.000456 0.0254 0.001
-0.000456 0.0254 -0.001
0.000456 0.0254 0.001
0.000456 0.0254 -0.001
0.00076 -0.0254 0.001
0.00076 -0.0254 -0.001
-0.00076 0.0254 0.001
-0.00076 0.0254 -0.001
0.00076 0.0254 0.001
0.00076 0.0254 -0.001
0.001064 -0.0254 0.001
0.001064 -0.0254 -0.001
-0.001064 0.0254 0.001
-0.001064 0.0254 -0.001
0.001064 0.0254 0.001
0.001064 0.0254 -0.001
0.001368 -0.0254 0.001
0.001368 -0.0254 -0.001
-0.001368 0.0254 0.001
-0.001368 0.0254 -0.001
0.001368 0.0254 0.001
0.001368 0.0254 -0.001
0.001672 -0.0254 0.001
0.001672 -0.0254 -0.001
-0.001672 0.0254 0.001
-0.001672 0.0254 -0.001
0.001672 0.0254 0.001
0.001672 0.0254 -0.001
0.001976 -0.0254 0.001
0.001976 -0.0254 -0.001
-0.001976 0.0254 0.001
-0.001976 0.0254 -0.001
0.001976 0.0254 0.001
0.001976 0.0254 -0.001
0.00228 -0.0254 0.001
0.00228 -0.0254 -0.001
-0.00228 0.0254 0.001
-0.00228 0.0254 -0.001
0.00228 0.0254 0.001
0.00228 0.0254 -0.001
0.002584 -0.0254 0.001
0.002584 -0.0254 -0.001
-0.002584 0.0254 0.001
-0.002584 0.0254 -0.001
0.002584 0.0254 0.001
0.002584 0.0254 -0.001
0.002888 -0.0254 0.001
0.002888 -0.0254 -0.001
-0.002888 0.0254 0.001
-0.002888 0.0254 -0.001
0.002888 0.0254 0.001
0.002888 0.0254 -0.001
0.003192 -0.0254 0.001
0.003192 -0.0254 -0.001
-0.003192 0.0254 0.001
-0.003192 0.0254 -0.001
0.003192 0.0254 0.001
0.003192 0.0254 -0.001
0.003496 -0.0254 0.001
0.003496 -0.0254 -0.001
-0.003496 0.0254 0.001
-0.003496 0.0254 -0.001
0.003496 0.0254 0.001
0.003496 0.0254 -0.001
0.0038 -0.0254 0.001
0.0038 -0.0254 -0.001
-0.0038 0.0254 0.001
-0.0038 0.0254 -0.001
0.0038 0.0254 0.001
0.0038 0.0254 -0.001
0.004104 -0.0254 0.001
0.004104 -0.0254 -0.001
-0.004104 0.0254 0.001
-0.004104 0.0254 -0.001
0.004104 0.0254 0.001
0.004104 0.0254 -0.001
0.004408 -0.0254 0.001
0.004408 -0.0254 -0.001
-0.004408 0.0254 0.001
-0.004408 0.0254 -0.001
0.004408 0.0254 0.001
0.004408 0.0254 -0.001
0.004712 -0.0254 0.001
0.004712 -0.0254 -0.001
-0.004712 0.0254 0.001
-0.004712 0.0254 -0.001
0.004712 0.0254 0.001
0.004712 0.0254 -0.001
0.005016 -0.0254 0.001
0.005016 -0.0254 -0.001
-0.005016 0.0254 0.001
-0.005016 0.0254 -0.001
0.005016 0.0254 0.001
0.005016 0.0254 -0.001
0.00532 -0.0254 0.001
0.00532 -0.0254 -0.001
-0.00532 0.0254 0.001
-0.00532 0.0254 -0.001
0.00532 0.0254 0.001
0.00532 0.0254 -0.001
0.005624 -0.0254 0.001
0.005624 -0.0254 -0.001
-0.005624 0.0254 0.001
-0.005624 0.0254 -0.001
0.005624 0.0254 0.001
0.005624 0.0254 -0.001
0.005928 -0.0254 0.001
0.005928 -0.0254 -0.001
-0.005928 0.0254 0.001
-0.005928 0.0254 -0.001
0.005928 0.0254 0.001
0.005928 0.0254 -0.001
0.006232 -0.0254 0.001
0.006232 -0.0254 -0.001
-0.006232 0.0254 0.001
-0.006232 0.0254 -0.001
0.006232 0.0254 0.001
0.006232 0.0254 -0.001
0.006536 -0.0254 0.001
0.006536 -0.0254 -0.001
-0.006536 0.0254 0.001
-0.006536 0.0254 -0.001
0.006536 0.0254 0.001
0.006536 0.0254 -0.001
0.00684 -0.0254 0.001
0.00684 -0.0254 -0.001
-0.00684 0.0254 0.001
-0.00684 0.0254 -0.001
0.00684 0.0254 0.001
0.00684 0.0254 -0.001
0.007144 -0.0254 0.001
0.007144 -0.0254 -0.001
-0.007144 0.0254 0.001
-0.007144 0.0254 -0.001
0.007144 0.0254 0.001
0.007144 0.0254 -0.001
0.007448 -0.0254 0.001
0.007448 -0.0254 -0.001
-0.007448 0.0254 0.001
-0.007448 0.0254 -0.001
0.007448 0.0254 0.001
0.007448 0.0254 -0.001
0.007752 -0.0254 0.001
0.007752 -0.0254 -0.001
-0.007752 0.0254 0.001
-0.007752 0.0254 -0.001
0.007752 0.0254 0.001
0.007752 0.0254 -0.001
0.008056 -0.0254 0.001
0.008056 -0.0254 -0.001
-0.008056 0.0254 0.001
-0.008056 0.0254 -0.001
0.008056 0.0254 0.001
0.008056 0.0254 -0.001
0.00836 -0.0254 0.001
0.00836 -0.0254 -0.001
-0.00836 0.0254 0.001
-0.00836 0.0254 -0.001
0.00836 0.0254 0.001
0.00836 0.0254 -0.001
0.008664 -0.0254 0.001
0.008664 -0.0254 -0.001
-0.008664 0.0254 0.001
-0.008664 0.0254 -0.001
0.008664 0.0254 0.001
0.008664 0.0254 -0.001
0.008968 -0.0254 0.001
0.008968 -0.0254 -0.001
-0.008968 0.0254 0.001
-0.008968 0.0254 -0.001
0.008968 0.0254 0.001
0.008968 0.0254 -0.001
0.009272 -0.0254 0.001
0.009272 -0.0254 -0.001
[...]
CELL_DATA 2113
FIELD attributes 1
p 1 2113 double
-9.04971 -9.04976 -9.04977 -9.04969 -9.04952 -9.04926 -9.0489 -9.04847 -9.048 -9.04754
-9.04718 -9.04702 -9.04714 -9.04761 -9.04846 -9.0497 -9.05131 -9.05326 -9.0555 -9.05796
-9.06059 -9.06335 -9.06616 -9.06901 -9.07184 -9.07463 -9.07733 -9.07996 -9.08245 -9.08485
-9.08708 -9.08921 -9.09115 -9.09296 -9.0946 -9.09609 -9.09743 -9.09864 -9.09971 -9.10065
-9.10148 -9.1022 -9.10282 -9.10334 -9.10379 -9.10417 -9.10449 -9.10477 -9.10501 -9.10523
-9.10543 -9.10564 -9.10585 -9.10608 -9.10633 -9.10664 -9.10698 -9.1074 -9.10788 -9.10846
-9.10914 -9.10993 -9.11084 -9.11189 -9.11308 -9.11443 -9.11591 -9.11755 -9.11932 -9.12122
-9.12326 -9.12541 -9.12765 -9.12999 -9.1324 -9.13487 -9.13741 -9.14001 -9.14265 -9.14533
-9.14805 -9.15081 -9.15361 -9.15647 -9.15937 -9.16231 -9.16532 -9.1685 -9.17186 -9.17535
-9.17879 -9.18235 -9.18645 -9.1911 -9.19603 -9.20119 -9.20673 -9.21291 -9.21967 -9.227
-9.23465 -9.24278 -9.25157 -9.26085 -9.27065 -9.28092 -9.2916 -9.30282 -9.31465 -9.32706
-9.33988 -9.35307 -9.36673 -9.38085 -9.39538 -9.41027 -9.42542 -9.4406 -9.45559 -9.47027
-9.48459 -9.49858 -9.51228 -9.52571 -9.53886 -9.5517 -9.5642 -9.57635 -9.58813 -9.59952
-9.61053 -9.62115 -9.63138 -9.64121 -9.65064 -9.65969 -9.66835 -9.67663 -9.68451 -9.69202
-9.69916 -9.70594 -9.71237 -9.71844 -9.72417 -9.72956 -9.73462 -9.73936 -9.74379 -9.74791
-9.75172 -9.75524 -9.75846 -9.7614 -9.76404 -9.76642 -9.76852 -9.77036 -9.77195 -9.77331
-9.77447 -9.77536 -9.77585 -9.77594 -9.77575 -9.77531 -9.77463 -9.77374 -9.77261 -9.77123
-9.7696 -9.76773 -9.7656 -9.76322 -9.76059 -9.75771 -9.75458 -9.75119 -9.74756 -9.74367
-9.73953 -9.73514 -9.7305 -9.7256 -9.72045 -9.71504 -9.70937 -9.70343 -9.69722 -9.69074
-9.684 -9.677 -9.66973 -9.6622 -9.6544 -9.64634 -9.63801 -9.6294 -9.62052 -9.61136
-9.60192 -9.59219 -9.58217 -9.57186 -9.56126 -9.55038 -9.5392 -9.52774 -9.51599 -9.50394
-9.4916 -9.47896 -9.46603 -9.45279 -9.43926 -9.42542 -9.41128 -9.39683 -9.38207 -9.36701
-9.35163 -9.33595 -9.31997 -9.30369 -9.28709 -9.27018 -9.25294 -9.23537 -9.21747 -9.19925
-9.1807 -9.16182 -9.14262 -9.12309 -9.10323 -9.08303 -9.06249 -9.04162 -9.02041 -8.99887
-8.97699 -8.95478 -8.93223 -8.90934 -8.88611 -8.86254 -8.83862 -8.81437 -8.78977 -8.76482
-8.73953 -8.71389 -8.68791 -8.66156 -8.63486 -8.60781 -8.58039 -8.55262 -8.5245 -8.49601
-8.46718 -8.43798 -8.40843 -8.37852 -8.34826 -8.31763 -8.28664 -8.25529 -8.22358 -8.19151
-8.15908 -8.12629 -8.09314 -8.05962 -8.02574 -7.9915 -7.95689 -7.92193 -7.8866 -7.8509
-7.81485 -7.77843 -7.74164 -7.7045 -7.66699 -7.62912 -7.59088 -7.55229 -7.51335 -7.47405
-7.4344 -7.3944 -7.35403 -7.31332 -7.27225 -7.23084 -7.18908 -7.14696 -7.10448 -7.06166
-7.01848 -6.97495 -6.93108 -6.88686 -6.84229 -6.79739 -6.75215 -6.70656 -6.66065 -6.6144
-6.56781 -6.5209 -6.47365 -6.42607 -6.37815 -6.32994 -6.28137 -6.23249 -6.18328 -6.13375
-6.08392 -6.03376 -5.9833 -5.93254 -5.88146 -5.83009 -5.77841 -5.72644 -5.67417 -5.62161
-5.56877 -5.51563 -5.46221 -5.40852 -5.35454 -5.3003 -5.24578 -5.19099 -5.13595 -5.08064
-5.02507 -4.96925 -4.91318 -4.85686 -4.80029 -4.74347 -4.6864 -4.62909 -4.57156 -4.51379
-4.45581 -4.39761 -4.33919 -4.28056 -4.22172 -4.16268 -4.10344 -4.044 -3.98438 -3.92455
-3.86454 -3.80434 -3.74396 -3.68339 -3.62266 -3.56176 -3.50074 -3.43957 -3.37826 -3.31682
-3.25524 -3.19353 -3.13169 -3.0697 -3.00759 -2.94535 -2.883 -2.82054 -2.75797 -2.69529
-2.63251 -2.56963 -2.50665 -2.44359 -2.38045 -2.31722 -2.25393 -2.19058 -2.12716 -2.06367
-2.00014 -1.93656 -1.87293 -1.80925 -1.74554 -1.6818 -1.61803 -1.55423 -1.49041 -1.42657
-1.36272 -1.29886 -1.235 -1.17114 -1.10728 -1.04342 -0.979578 -0.915749 -0.851938 -0.788149
-0.724386 -0.660651 -0.59695 -0.533284 -0.469658 -0.406075 -0.342537 -0.279048 -0.215612 -0.152234
-0.0889193 -0.0256808 0.0374698 0.100529 0.163506 0.226406 0.289238 0.351994 0.41469 0.477306
0.539859 0.602294 0.664619 0.726796 0.788859 0.850824 0.912683 0.974431 1.03606 1.09758
1.15897 1.22024 1.28139 1.34243 1.40335 1.46416 1.52484 1.58537 1.64577 1.70602
1.76612 1.82608 1.8859 1.94556 2.00507 2.06443 2.12363 2.18268 2.24157 2.3003
2.35887 2.41728 2.47552 2.5336 2.59151 2.64925 2.70683 2.76423 2.82146 2.87852
2.9354 2.9921 3.04863 3.10498 3.16115 3.21714 3.27295 3.32858 3.38402 3.43927
3.49434 3.54923 3.60392 3.65843 3.71275 3.76688 3.82081 3.87456 3.92811 3.98147
4.03463 4.08759 4.14036 4.19294 4.24531 4.29749 4.34947 4.40128 4.45289 4.5043
4.55551 4.60651 4.65732 4.70793 4.75834 4.80855 4.85856 4.90836 4.95793 5.00724
5.05631 5.10518 5.15386 5.20237 5.25069 5.29882 5.34675 5.39447 5.44198 5.48928
5.53637 5.58325 5.62992 5.67638 5.72263 5.76867 5.81449 5.86011 5.90552 5.95071
5.9957 6.04047 6.08503 6.12938 6.17352 6.21744 6.26116 6.30466 6.34795 6.39103
6.43389 6.47655 6.51899 6.56122 6.60323 6.64504 6.68663 6.728 6.76917 6.81012
6.85086 6.89139 6.9317 6.9718 7.01169 7.05137 7.09084 7.1301 7.16916 7.20799
7.24655 7.28488 7.32301 7.36094 7.39867 7.43617 7.47348 7.51062 7.54758 7.58432
7.62085 7.65716 7.69325 7.72913 7.7648 7.80027 7.83552 7.87055 7.90538 7.94001
7.97443 8.00865 8.04263 8.07641 8.11001 8.14343 8.17664 8.20963 8.24242 8.27496
8.30724 8.33931 8.37119 8.40292 8.43445 8.46574 8.49687 8.52789 8.55876 8.58939
8.61963 8.6496 8.67945 8.70914 8.73863 8.76795 8.79708 8.82603 8.85481 8.8834
8.91179 8.93999 8.96799 8.9958 9.02341 9.05084 9.07809 9.10515 9.13202 9.1587
9.18517 9.21144 9.23754 9.26346 9.2892 9.31476 9.34014 9.36534 9.39037 9.41522
9.43991 9.46442 9.48876 9.51292 9.53691 9.56074 9.5844 9.60789 9.63122 9.6544
9.67741 9.70027 9.72298 9.74554 9.76795 9.79022 9.81235 9.83435 9.85622 9.87797
9.89959 9.9211 9.94251 9.96382 9.98504 10.0062 10.0272 10.0482 10.0692 10.0901
10.1111 10.132 10.1529 10.1739 10.195 10.2162 10.2375 10.2591 10.2809 10.303
10.3254 10.3482 10.3714 10.3953 10.4197 10.4448 10.4707 10.4976 10.5256 10.5537
10.5794 10.5992 10.6131 -9.04967 10.6311 10.6482 10.6665 10.6759 10.6864 10.7005
10.7148 10.7264 -9.04965 10.7429 10.7432 10.7456 10.7498 10.7567 10.7673 10.7799
10.789 -9.04969 10.7999 10.8076 10.8091 10.8095 10.8112 10.8101 10.8282 10.7938
-9.0498 10.8649 10.8866 10.8886 10.8772 10.8613 10.8505 10.8539 10.8567 -9.04995
10.8915 10.8988 10.8932 10.8804 10.8667 10.8561 10.8564 10.8707 -9.05014 10.8987
10.8934 10.881 10.8671 10.8515 10.8386 10.8376 10.8536 -9.05034 10.8874 10.8721
10.8522 10.8342 10.8144 10.797 10.7952 10.8133 -9.05057 10.8541 10.8294 10.8016
10.7785 10.7534 10.731 10.7288 10.7494 -9.05082 10.7986 10.7624 10.7255 10.6966
10.6656 10.6375 10.6368 10.6539 -9.0511 10.6811 10.6854 10.6608 10.6279 10.5972
10.5556 10.5344 10.5032 -9.0514 10.5868 10.6075 10.5843 10.5403 10.4928 10.4402
10.3995 10.4027 -9.05175 10.4676 10.4596 10.4237 10.382 10.3356 10.2797 10.2396
10.2489 -9.05214 10.3237 10.2944 10.248 10.2059 10.1548 10.092 10.0492 10.063
-9.05257 10.1566 10.1086 10.051 10.0033 9.94627 9.87526 9.83349 9.85328 -9.05304
9.9641 9.89684 9.82807 9.77415 9.7118 9.63091 9.59257 9.61394 -9.05355 9.6671
9.68648 9.63434 9.57418 9.51779 9.44763 9.36267 9.33355 9.3615 -9.0541 9.42222
9.42993 9.37161 9.3031 9.24224 9.15777 9.0784 9.01096 -9.05468 9.15097 9.17846
9.12326 9.04225 8.96084 8.85958 8.75701 8.7334 -9.05528 8.86559 8.84369 8.77277
8.70294 8.62322 8.5151 8.41056 8.39783 -9.0559 8.55901 8.49925 8.40999 8.33845
8.25399 8.13399 8.02761 8.02623 -9.05653 8.21986 8.12888 8.02344 7.94767 7.85624
7.72255 7.61818 7.63 -9.05713 7.85593 7.72897 7.6063 7.52565 7.42717 7.27982
7.18633 7.21196 -9.05767 7.31092 7.34276 7.25321 7.14254 7.07471 6.93612 6.84339
6.60612 -9.05816 6.88479 7.00601 6.95056 6.80614 6.6622 6.49825 6.32708 6.19686
-9.05858 6.4205 6.45899 6.35642 6.22753 6.11424 5.9642 5.78037 5.70977 -9.05889
5.9364 5.89234 5.77059 5.66527 5.55721 5.39538 5.20441 5.15412 -9.05903 5.43657
5.33514 5.18488 5.07686 4.96168 4.77879 4.58292 4.54868 -9.059 4.88946 4.7347
4.55843 4.44609 4.32152 4.11258 3.92086 3.89904 -9.05876 4.3019 4.08395 3.88065
3.76386 3.63104 3.39694 3.21524 3.23073 -9.05833 3.39412 3.44373 3.29079 3.11899
3.01958 2.83649 2.64015 2.33317 -9.0577 2.66458 2.83072 2.6706 2.44148 2.25487
2.03688 1.7191 1.54075 -9.05686 1.79888 1.79279 1.58713 1.37173 1.21022 0.977437
0.636541 0.3963 -9.05581 0.791589 0.634936 0.339692 0.0555114 -9.05453 -9.05301 -9.05126
-9.04929 -9.0471 -9.04474 -9.04218 -9.03946 -9.0366 -9.03358 -9.03049 -9.02731 -9.02405
-9.02072 -9.01733 -9.0139 -9.01044 -9.00697 -9.00352 -9.0001 -8.99672 -8.99341 -8.99017
-8.98701 -8.98396 -8.98101 -8.97818 -8.97546 -8.97287 -8.97044 -8.96819 -8.96608 -8.96412
-8.96234 -8.96073 -8.95926 -8.95797 -8.95686 -8.95592 -8.95514 -8.95449 -8.95399 -8.95365
-8.95348 -8.95348 -8.95363 -8.95392 -8.95437 -8.95498 -8.95572 -8.95659 -8.9576 -8.95875
-8.96003 -8.96146 -8.96304 -8.96478 -8.96667 -8.96877 -8.97115 -8.97392 -8.97725 -8.98136
-8.98686 -8.99459 -9.01145 -9.05774 -9.22201 0.491602 0.4102 0.230761 0.0240223 1.19433
1.23496 1.07365 0.904096 0.760832 0.566502 0.265009 0.0882893 1.84921 2.02735 1.90118
1.70711 1.54403 1.33535 1.052 0.861559 2.44069 2.50879 2.3823 2.23333 2.14625
1.96825 1.7829 1.48205 3.28366 3.0837 2.89534 2.78542 2.65428 2.41684 2.23116
2.26159 3.7876 3.652 3.48928 3.38165 3.25426 3.03804 2.8342 2.82199 4.26249
4.18262 4.04695 3.94305 3.82391 3.63214 3.41793 3.38643 4.70371 4.69505 4.58481
4.46825 4.35362 4.18588 3.97334 3.92476 5.1536 5.26964 5.18756 5.04596 4.9065
4.73239 4.50595 4.43166 5.58944 5.75388 5.75817 5.61912 5.4337 5.21829 5.04012
4.80948 5.97074 6.03015 5.95428 5.83724 5.7791 5.60934 5.5214 5.18732 6.56218
6.43121 6.29862 6.21286 6.101 5.92315 5.79186 5.83268 6.89871 6.81629 6.70608
6.62373 6.51719 6.35223 6.20462 6.22414 7.21812 7.1744 7.08382 7.00545 6.90621
6.75646 6.59947 6.59664 7.52381 7.55369 7.48362 7.38767 7.28416 7.14371 6.98076
6.95498 7.83311 7.94769 7.93185 7.82823 7.68092 7.51732 7.35502 7.26827 8.10627
8.14195 8.08056 7.99273 7.93464 7.79348 7.71254 7.48897 8.39166 8.46085 8.39973
8.32633 8.25392 8.15671 8.00756 7.92941 7.98329 8.83518 8.74347 8.64465 8.57227
8.47944 8.33435 8.23923 8.27931 9.07678 9.02063 8.93675 8.86891 8.77909 8.64368
8.52741 8.55637 9.30832 9.29094 9.22246 9.15294 9.06711 8.94177 8.81503 8.82196
9.54634 9.62165 9.5795 9.4859 9.37807 9.24376 9.10209 9.08976 9.79171 9.92231
9.92733 9.83329 9.6942 9.52826 9.40708 9.25564 10.0115 10.0535 10.0015 9.91781
9.87156 9.73284 9.68348 9.43014 10.4394 10.3276 10.2222 10.1519 10.0615 9.92263
9.84421 9.8969 10.6845 10.6011 10.5052 10.438 10.3493 10.2136 10.1128 10.1563
10.9319 10.8831 10.7993 10.7311 10.6446 10.5142 10.396 10.4177 11.1967 11.1881
11.1114 11.0302 10.9444 10.8221 10.6895 10.6853 11.5039 11.5974 11.5343 11.4201
11.3081 11.1699 11.0137 10.9841 11.8479 11.9812 11.975 11.8479 11.6912 11.5149
11.3905 11.2072 12.1949 12.2312 12.1483 12.0404 11.9836 11.8413 11.7778 11.5029
12.7461 12.6149 12.488 12.4048 12.3046 12.1567 12.0613 12.0905 13.0822 13.0123
12.9296 12.8502 12.7538 12.6266 12.5282 12.5317 -2.9659 -4.27401 -4.9703 -5.25966
-5.43751 -5.58672 -5.69613 -5.8419 -5.99793 -6.14223 -6.27544 -6.40242 -6.53161 -6.65384
-6.77508 -6.88546 -6.99754 -7.09651 -7.19751 -7.26741 -7.31583 -7.36113 -7.41258 -7.46596
-7.51397 -7.562 -7.61035 -7.66155 -7.7126 -7.76346 -7.81395 -7.86303 -7.90992 -7.9544
-7.99663 -8.03672 -8.0745 -8.10997 -8.14307 -8.17369 -8.20199 -8.22826 -8.25247 -8.27487
-8.29533 -8.31414 -8.33111 -8.34655 -8.36031 -8.37276 -8.38376 -8.39367 -8.40254 -8.41064
-8.41774 -8.424 -8.42921 -8.43388 -8.43808 -8.44213 -8.4459 -8.44953 -8.45293 -8.45619
-8.45928 -8.4623 -8.46526 -8.4682 -8.47094 -8.47213 -8.47081 -8.46678 -8.46106 -8.45559
-8.45154 -8.44853 -8.44609 -8.4443 -8.44327 -8.44329 -8.44425 -8.44594 -8.44787 -8.4499
-8.45194 -8.45411 -8.45625 -8.45843 -8.4609 -8.46362 -8.46644 -8.46929 -8.47221 -8.47523
-8.47834 -8.48154 -8.48483 -8.48821 -8.49166 -8.49519 -8.49879 -8.50247 -8.50621 -8.51002
-8.51388 -8.51781 -8.5218 -8.52584 -8.52993 -8.53405 -8.53819 -8.54236 -8.54653 -8.55072
-8.5549 -8.55907 -8.56322 -8.56734 -8.57144 -8.57551 -8.57955 -8.58357 -8.58755 -8.59151
-8.59542 -8.5993 -8.60314 -8.60694 -8.61069 -8.6144 -8.61806 -8.62167 -8.62524 -8.62875
-8.63221 -8.63563 -8.63899 -8.6423 -8.64555 -8.64872 -8.65178 -8.65477 -8.65768 -8.66052
-8.66331 -8.66605 -8.66874 -8.67138 -8.67398 -8.67655 -8.67907 -8.68155 -8.684 -8.68641
-8.68878 -8.69112 -8.69342 -8.69568 -8.6979 -8.70008 -8.70221 -8.7043 -8.70635 -8.70834
-8.71029 -8.71218 -8.71402 -8.7158 -8.71751 -8.71918 -8.72077 -8.7223 -8.72376 -8.72515
-8.72647 -8.72771 -8.72888 -8.72996 -8.73096 -8.73187 -8.73271 -8.73344 -8.73409 -8.73462
-8.73508 -8.73545 -8.73572 -8.73589 -8.73599 -8.73598 -8.7358 -8.7354 -8.73488 -8.73431
-8.73365 -8.73286 -8.73195 -8.73091 -8.72974 -8.72845 -8.72702 -8.72545 -8.72375 -8.72191
-8.71993 -8.71781 -8.71554 -8.71313 -8.71057 -8.70786 -8.705 -8.70198 -8.69881 -8.69548
-8.69199 -8.68835 -8.68454 -8.68057 -8.67643 -8.67213 -8.66766 -8.66302 -8.6582 -8.65322
-8.64806 -8.64272 -8.63721 -8.63151 -8.62564 -8.61958 -8.61335 -8.60692 -8.60031 -8.59351
-8.58652 -8.57934 -8.57197 -8.5644 -8.55664 -8.54868 -8.54052 -8.53216 -8.52361 -8.51484
-8.50588 -8.49671 -8.48734 -8.47775 -8.46796 -8.45796 -8.44774 -8.43731 -8.42667 -8.41581
-8.40474 -8.39344 -8.38193 -8.3702 -8.35824 -8.34606 -8.33366 -8.32103 -8.30817 -8.29509
-8.28178 -8.26824 -8.25446 -8.24045 -8.22621 -8.21174 -8.19703 -8.18208 -8.16689 -8.15147
-8.13581 -8.1199 -8.10375 -8.08736 -8.07073 -8.05385 -8.03672 -8.01935 -8.00173 -7.98386
-7.96575 -7.94738 -7.92876 -7.90989 -7.89076 -7.87139 -7.85175 -7.83187 -7.81172 -7.79133
-7.77067 -7.74975 -7.72858 -7.70715 -7.68545 -7.6635 -7.64129 -7.61881 -7.59607 -7.57307
-7.54981 -7.52628 -7.50249 -7.47843 -7.45411 -7.42952 -7.40467 -7.37955 -7.35417 -7.32851
-7.30259 -7.27641 -7.24995 -7.22323 -7.19624 -7.16898 -7.14145 -7.11366 -7.08559 -7.05726
-7.02866 -6.99979 -6.97065 -6.94125 -6.91157 -6.88163 -6.85142 -6.82094 -6.79019 -6.75917
-6.72789 -6.69634 -6.66452 -6.63244 -6.60009 -6.56747 -6.53459 -6.50144 -6.46803 -6.43435
-6.40041 -6.36621 -6.33175 -6.29702 -6.26203 -6.22678 -6.19128 -6.15551 -6.11948 -6.0832
-6.04666 -6.00986 -5.97281 -5.93551 -5.89795 -5.86014 -5.82207 -5.78376 -5.7452 -5.70639
-5.66734 -5.62804 -5.58849 -5.5487 -5.50867 -5.4684 -5.42789 -5.38714 -5.34615 -5.30493
-5.26348 -5.22179 -5.17987 -5.13773 -5.09535 -5.05275 -5.00992 -4.96688 -4.92361 -4.88012
-4.83641 -4.79249 -4.74835 -4.704 -4.65944 -4.61467 -4.5697 -4.52452 -4.47913 -4.43355
-4.38777 -4.34179 -4.29561 -4.24924 -4.20269 -4.15594 -4.10901 -4.06189 -4.01459 -3.96711
-3.91945 -3.87162 -3.82362 -3.77544 -3.7271 -3.67859 -3.62991 -3.58108 -3.53208 -3.48293
-3.43363 -3.38417 -3.33457 -3.28482 -3.23492 -3.18488 -3.13471 -3.08439 -3.03394 -2.98337
-2.93266 -2.88182 -2.83087 -2.77979 -2.72859 -2.67728 -2.62585 -2.57431 -2.52267 -2.47092
-2.41906 -2.36711 -2.31506 -2.26291 -2.21068 -2.15835 -2.10593 -2.05344 -2.00086 -1.9482
-1.89546 -1.84265 -1.78977 -1.73683 -1.68381 -1.63074 -1.5776 -1.52441 -1.47116 -1.41786
-1.36451 -1.31111 -1.25766 -1.20418 -1.15065 -1.09709 -1.04349 -0.989866 -0.936208 -0.882524
-0.828815 -0.775084 -0.721333 -0.667566 -0.613784 -0.55999 -0.506186 -0.452374 -0.398558 -0.344739
-0.290919 -0.237101 -0.183288 -0.129481 -0.0756826 -0.0218952 0.0318792 0.0856382 0.13938 0.193102
0.246802 0.300479 0.35413 0.407753 0.461346 0.514908 0.568436 0.621928 0.675382 0.728797
0.782171 0.835502 0.888788 0.942027 0.995217 1.04836 1.10145 1.15448 1.20746 1.26039
1.31325 1.36606 1.4188 1.47148 1.5241 1.57665 1.62914 1.68155 1.7339 1.78617
1.83838 1.89051 1.94256 1.99454 2.04644 2.09827 2.15001 2.20168 2.25326 2.30476
2.35618 2.40751 2.45876 2.50992 2.561 2.61199 2.66289 2.7137 2.76442 2.81505
2.86559 2.91604 2.96639 3.01665 3.06682 3.1169 3.16688 3.21676 3.26655 3.31625
3.36585 3.41535 3.46475 3.51406 3.56327 3.61238 3.6614 3.71032 3.75914 3.80786
3.85648 3.90501 3.95344 4.00177 4.05 4.09813 4.14616 4.1941 4.24194 4.28968
4.33733 4.38487 4.43232 4.47968 4.52693 4.57409 4.62116 4.66813 4.715 4.76178
4.80847 4.85506 4.90156 4.94797 4.99428 5.0405 5.08664 5.13268 5.17863 5.22449
5.27027 5.31595 5.36156 5.40707 5.4525 5.49784 5.5431 5.58828 5.63338 5.67839
5.72333 5.76818 5.81296 5.85766 5.90229 5.94684 5.99131 6.03572 6.08005 6.12431
6.1685 6.21262 6.25668 6.30067 6.34459 6.38845 6.43226 6.476 6.51968 6.5633
6.60687 6.65038 6.69384 6.73725 6.78061 6.82392 6.86718 6.9104 6.95357 6.9967
7.03979 7.08285 7.12586 7.16884 7.21179 7.25471 7.2976 7.34046 7.3833 7.42611
7.46891 7.51168 7.55444 7.59718 7.63991 7.68263 7.72535 7.76806 7.81076 7.85347
7.89617 7.93889 7.98161 8.02434 8.06708 8.10984 8.15262 8.19541 8.23824 8.28109
8.32397 8.36688 8.40983 8.45282 8.49585 8.53893 8.58206 8.62524 8.66848 8.71179
8.75515 8.79858 8.84209 8.88567 8.92934 8.97309 9.01692 9.06086 9.10489 9.14902
9.19326 9.23761 9.28208 9.32667 9.37139 9.41625 9.46124 9.50638 9.55166 9.59711
9.64271 9.68849 9.73444 9.78057 9.8269 9.87342 9.92014 9.96707 10.0142 10.0616
10.1092 10.1571 10.2052 10.2536 10.3022 10.3512 10.4004 10.4499 10.4998 10.55
10.6005 10.6513 10.7026 10.7542 10.8062 10.8586 10.9114 10.9647 11.0185 11.0727
11.1274 11.1826 11.2384 11.2948 11.3517 11.4092 11.4674 11.5263 11.5859 11.6462
11.7073 11.7692 11.832 11.8957 11.9604 12.0261 12.0928 12.1608 12.23 12.3005
12.3724 12.446 12.5212 12.5984 12.6776 12.7595 12.8451 12.9143 12.962 12.9844
12.9852 -5.02636 -5.64976 -6.04402 -6.21747 -6.32879 -6.43289 -6.52845 -6.61102 -6.6824
-6.74593 -6.80361 -6.85808 -6.91086 -6.96329 -7.0098 -7.03508 -7.0644 -7.09747 -7.13896
-7.18061 -7.22273 -7.26535 -7.29994 -7.32388 -7.33684 -7.35958 -7.38645 -7.4202 -7.45335
-7.48705 -7.52317 -7.56185 -7.60014 -7.63649 -7.67283 -7.70943 -7.74706 -7.78482 -7.8232
-7.86167 -7.90105 -7.94068 -7.98147 -8.02254 -8.06503 -8.10783 -8.15232 -8.19694 -8.24329
-8.28913 -8.33672 -8.3843 -8.43531 -8.48693 -8.54327 -8.60013 -8.66307 -8.72737 -8.79976
-8.87854 -8.96551 -9.0938
