# vtk DataFile Version 2.0
sampleSurface
ASCII
DATASET POLYDATA
POINTS 4338 double
-0.000152 0 0.001
-0.000152 0 -0.001
0 -0.00025 0.001
0 -0.00025 -0.001
-0.000456 0 -0.001
-0.000456 0 0.001
0 -0.0005 0.001
0 -0.0005 -0.001
0 -0.00075 0.001
0 -0.00075 -0.001
-0.00076 0 -0.001
-0.00076 0 0.001
0 -0.001 0.001
0 -0.001 -0.001
-0.001064 0 -0.001
-0.001064 0 0.001
0 -0.00125 0.001
0 -0.00125 -0.001
-0.001368 0 -0.001
-0.001368 0 0.001
0 -0.0015 0.001
0 -0.0015 -0.001
-0.001672 0 -0.001
-0.001672 0 0.001
0 -0.00175 0.001
0 -0.00175 -0.001
-0.001976 0 -0.001
-0.001976 0 0.001
0 -0.002 0.001
0 -0.002 -0.001
0 -0.00225 0.001
0 -0.00225 -0.001
-0.00228 0 -0.001
-0.00228 0 0.001
0 -0.0025 0.001
0 -0.0025 -0.001
-0.002584 0 -0.001
-0.002584 0 0.001
0 -0.00275 0.001
0 -0.00275 -0.001
-0.002888 0 -0.001
-0.002888 0 0.001
0 -0.003 0.001
0 -0.003 -0.001
-0.003192 0 -0.001
-0.003192 0 0.001
0 -0.00325 0.001
0 -0.00325 -0.001
-0.003496 0 -0.001
-0.003496 0 0.001
0 -0.0035 0.001
0 -0.0035 -0.001
0 -0.00375 0.001
0 -0.00375 -0.001
-0.0038 0 -0.001
-0.0038 0 0.001
0 -0.004 0.001
0 -0.004 -0.001
-0.004104 0 -0.001
-0.004104 0 0.001
0 -0.00425 0.001
0 -0.00425 -0.001
-0.004408 0 -0.001
-0.004408 0 0.001
0 -0.0045 0.001
0 -0.0045 -0.001
-0.004712 0 -0.001
-0.004712 0 0.001
0 -0.00475 0.001
0 -0.00475 -0.001
0 -0.005 0.001
0 -0.005 -0.001
-0.005016 0 -0.001
-0.005016 0 0.001
0 -0.00525 0.001
0 -0.00525 -0.001
-0.00532 0 -0.001
-0.00532 0 0.001
0 -0.0055 0.001
0 -0.0055 -0.001
-0.005624 0 -0.001
-0.005624 0 0.001
0 -0.00575 0.001
0 -0.00575 -0.001
-0.005928 0 -0.001
-0.005928 0 0.001
0 -0.006 0.001
0 -0.006 -0.001
-0.006232 0 -0.001
-0.006232 0 0.001
0 -0.00625 0.001
0 -0.00625 -0.001
0 -0.0065 0.001
0 -0.0065 -0.001
-0.006536 0 -0.001
-0.006536 0 0.001
0 -0.00675 0.001
0 -0.00675 -0.001
-0.00684 0 -0.001
-0.00684 0 0.001
0 -0.007 0.001
0 -0.007 -0.001
-0.007144 0 -0.001
-0.007144 0 0.001
0 -0.00725 0.001
0 -0.00725 -0.001
-0.007448 0 -0.001
-0.007448 0 0.001
0 -0.0075 0.001
0 -0.0075 -0.001
0 -0.00775 0.001
0 -0.00775 -0.001
-0.007752 0 -0.001
-0.007752 0 0.001
0 -0.008 0.001
0 -0.008 -0.001
-0.008056 0 -0.001
-0.008056 0 0.001
0 -0.00825 0.001
0 -0.00825 -0.001
-0.00836 0 -0.001
-0.00836 0 0.001
0 -0.0085 0.001
0 -0.0085 -0.001
-0.008664 0 -0.001
-0.008664 0 0.001
0 -0.00875 0.001
0 -0.00875 -0.001
-0.008968 0 -0.001
-0.008968 0 0.001
0 -0.009 0.001
0 -0.009 -0.001
0 -0.00925 0.001
0 -0.00925 -0.001
-0.009272 0 -0.001
-0.009272 0 0.001
0 -0.0095 0.001
0 -0.0095 -0.001
-0.009576 0 -0.001
-0.009576 0 0.001
0 -0.00975 0.001
0 -0.00975 -0.001
-0.00988 0 -0.001
-0.00988 0 0.001
0 -0.01 0.001
0 -0.01 -0.001
-0.010184 0 -0.001
-0.010184 0 0.001
0 -0.01025 0.001
0 -0.01025 -0.001
-0.010488 0 -0.001
-0.010488 0 0.001
0 -0.0105 0.001
0 -0.0105 -0.001
0 -0.01075 0.001
0 -0.01075 -0.001
-0.010792 -5.78241e-19 -0.001
-0.010792 -5.78241e-19 0.001
0 -0.011 0.001
0 -0.011 -0.001
-0.011096 0 -0.001
-0.011096 0 0.001
0 -0.01125 0.001
0 -0.01125 -0.001
-0.0114 0 -0.001
-0.0114 0 0.001
0 -0.0115 0.001
0 -0.0115 -0.001
-0.011704 0 -0.001
-0.011704 0 0.001
0 -0.01175 0.001
0 -0.01175 -0.001
0 -0.012 0.001
0 -0.012 -0.001
-0.012008 0 -0.001
-0.012008 0 0.001
0 -0.01225 0.001
0 -0.01225 -0.001
-0.012312 0 -0.001
-0.012312 0 0.001
0 -0.0125 0.001
0 -0.0125 -0.001
-0.012616 0 -0.001
-0.012616 0 0.001
0 -0.01275 0.001
0 -0.01275 -0.001
-0.01292 0 -0.001
-0.01292 0 0.001
0 -0.013 0.001
0 -0.013 -0.001
-0.013224 0 -0.001
-0.013224 0 0.001
0 -0.01325 0.001
0 -0.01325 -0.001
0 -0.0135 0.001
0 -0.0135 -0.001
-0.013528 0 -0.001
-0.013528 0 0.001
0 -0.01375 0.001
0 -0.01375 -0.001
-0.013832 0 -0.001
-0.013832 0 0.001
0 -0.014 0.001
0 -0.014 -0.001
-0.014136 0 -0.001
-0.014136 0 0.001
0 -0.01425 0.001
0 -0.01425 -0.001
-0.01444 0 -0.001
-0.01444 0 0.001
0 -0.0145 0.001
0 -0.0145 -0.001
-0.014744 0 -0.001
-0.014744 0 0.001
0 -0.01475 0.001
0 -0.01475 -0.001
0 -0.015 0.001
0 -0.015 -0.001
-0.015048 0 -0.001
-0.015048 0 0.001
0 -0.01525 0.001
0 -0.01525 -0.001
-0.015352 0 -0.001
-0.015352 0 0.001
0 -0.0155 0.001
0 -0.0155 -0.001
-0.015656 0 -0.001
-0.015656 0 0.001
0 -0.01575 0.001
0 -0.01575 -0.001
-0.01596 0 -0.001
-0.01596 0 0.001
0 -0.016 0.001
0 -0.016 -0.001
0 -0.01625 0.001
0 -0.01625 -0.001
-0.016264 0 -0.001
-0.016264 0 0.001
0 -0.0165 0.001
0 -0.0165 -0.001
-0.016568 0 -0.001
-0.016568 0 0.001
0 -0.01675 0.001
0 -0.01675 -0.001
-0.016872 0 -0.001
-0.016872 0 0.001
0 -0.017 0.001
0 -0.017 -0.001
-0.017176 0 -0.001
-0.017176 0 0.001
0 -0.01725 0.001
0 -0.01725 -0.001
-0.01748 0 -0.001
-0.01748 0 0.001
0 -0.0175 0.001
0 -0.0175 -0.001
0 -0.01775 0.001
0 -0.01775 -0.001
-0.017784 0 -0.001
-0.017784 0 0.001
0 -0.018 0.001
0 -0.018 -0.001
-0.018088 0 -0.001
-0.018088 0 0.001
0 -0.01825 0.001
0 -0.01825 -0.001
-0.018392 0 -0.001
-0.018392 0 0.001
0 -0.0185 0.001
0 -0.0185 -0.001
-0.018696 0 -0.001
-0.018696 0 0.001
0 -0.01875 0.001
0 -0.01875 -0.001
0 -0.019 0.001
0 -0.019 -0.001
-0.019 0 -0.001
-0.019 0 0.001
0 -0.01925 0.001
0 -0.01925 -0.001
0 -0.0195 0.001
0 -0.0195 -0.001
0 -0.01975 0.001
0 -0.01975 -0.001
0 -0.02 0.001
0 -0.02 -0.001
0 -0.02025 0.001
0 -0.02025 -0.001
0 -0.0205 0.001
0 -0.0205 -0.001
0 -0.02075 0.001
0 -0.02075 -0.001
0 -0.021 0.001
0 -0.021 -0.001
0 -0.02125 0.001
0 -0.02125 -0.001
0 -0.0215 0.001
0 -0.0215 -0.001
0 -0.02175 0.001
0 -0.02175 -0.001
0 -0.022 0.001
0 -0.022 -0.001
0 -0.02225 0.001
0 -0.02225 -0.001
0 -0.0225 0.001
0 -0.0225 -0.001
0 -0.02275 0.001
0 -0.02275 -0.001
0 -0.023 0.001
0 -0.023 -0.001
0 -0.02325 0.001
0 -0.02325 -0.001
0 -0.0235 0.001
0 -0.0235 -0.001
0 -0.02375 0.001
0 -0.02375 -0.001
0 -0.024 0.001
0 -0.024 -0.001
0 -0.02425 0.001
0 -0.02425 -0.001
0 -0.0245 0.001
0 -0.0245 -0.001
0 -0.02475 0.001
0 -0.02475 -0.001
0 -0.025 0.001
0 -0.025 -0.001
1.00662e-06 -0.02525 0.001
1.00662e-06 -0.02525 -0.001
0.000152 -0.0254 -0.001
0.000152 -0.0254 0.001
-0.000152 0.0254 0.001
-0.000152 0.0254 -0.001
0.000152 0.0254 0.001
0.000152 0.0254 -0.001
0.000456 -0.0254 0.001
0.000456 -0.0254 -0.001
-0.000456 0.0254 0.001
-0.000456 0.0254 -0.001
0.000456 0.0254 0.001
0.000456 0.0254 -0.001
0.00076 -0.0254 0.001
0.00076 -0.0254 -0.001
-0.00076 0.0254 0.001
-0.00076 0.0254 -0.001
0.00076 0.0254 0.001
0.00076 0.0254 -0.001
0.001064 -0.0254 0.001
0.001064 -0.0254 -0.001
-0.001064 0.0254 0.001
-0.001064 0.0254 -0.001
0.001064 0.0254 0.001
0.001064 0.0254 -0.001
0.001368 -0.0254 0.001
0.001368 -0.0254 -0.001
-0.001368 0.0254 0.001
-0.001368 0.0254 -0.001
0.001368 0.0254 0.001
0.001368 0.0254 -0.001
0.001672 -0.0254 0.001
0.001672 -0.0254 -0.001
-0.001672 0.0254 0.001
-0.001672 0.0254 -0.001
0.001672 0.0254 0.001
0.001672 0.0254 -0.001
0.001976 -0.0254 0.001
0.001976 -0.0254 -0.001
-0.001976 0.0254 0.001
-0.001976 0.0254 -0.001
0.001976 0.0254 0.001
0.001976 0.0254 -0.001
0.00228 -0.0254 0.001
0.00228 -0.0254 -0.001
-0.00228 0.0254 0.001
-0.00228 0.0254 -0.001
0.00228 0.0254 0.001
0.00228 0.0254 -0.001
0.002584 -0.0254 0.001
0.002584 -0.0254 -0.001
-0.002584 0.0254 0.001
-0.002584 0.0254 -0.001
0.002584 0.0254 0.001
0.002584 0.0254 -0.001
0.002888 -0.0254 0.001
0.002888 -0.0254 -0.001
-0.002888 0.0254 0.001
-0.002888 0.0254 -0.001
0.002888 0.0254 0.001
0.002888 0.0254 -0.001
0.003192 -0.0254 0.001
0.003192 -0.0254 -0.001
-0.003192 0.0254 0.001
-0.003192 0.0254 -0.001
0.003192 0.0254 0.001
0.003192 0.0254 -0.001
0.003496 -0.0254 0.001
0.003496 -0.0254 -0.001
-0.003496 0.0254 0.001
-0.003496 0.0254 -0.001
0.003496 0.0254 0.001
0.003496 0.0254 -0.001
0.0038 -0.0254 0.001
0.0038 -0.0254 -0.001
-0.0038 0.0254 0.001
-0.0038 0.0254 -0.001
0.0038 0.0254 0.001
0.0038 0.0254 -0.001
0.004104 -0.0254 0.001
0.004104 -0.0254 -0.001
-0.004104 0.0254 0.001
-0.004104 0.0254 -0.001
0.004104 0.0254 0.001
0.004104 0.0254 -0.001
0.004408 -0.0254 0.001
0.004408 -0.0254 -0.001
-0.004408 0.0254 0.001
-0.004408 0.0254 -0.001
0.004408 0.0254 0.001
0.004408 0.0254 -0.001
0.004712 -0.0254 0.001
0.004712 -0.0254 -0.001
-0.004712 0.0254 0.001
-0.004712 0.0254 -0.001
0.004712 0.0254 0.001
0.004712 0.0254 -0.001
0.005016 -0.0254 0.001
0.005016 -0.0254 -0.001
-0.005016 0.0254 0.001
-0.005016 0.0254 -0.001
0.005016 0.0254 0.001
0.005016 0.0254 -0.001
0.00532 -0.0254 0.001
0.00532 -0.0254 -0.001
-0.00532 0.0254 0.001
-0.00532 0.0254 -0.001
0.00532 0.0254 0.001
0.00532 0.0254 -0.001
0.005624 -0.0254 0.001
0.005624 -0.0254 -0.001
-0.005624 0.0254 0.001
-0.005624 0.0254 -0.001
0.005624 0.0254 0.001
0.005624 0.0254 -0.001
0.005928 -0.0254 0.001
0.005928 -0.0254 -0.001
-0.005928 0.0254 0.001
-0.005928 0.0254 -0.001
0.005928 0.0254 0.001
0.005928 0.0254 -0.001
0.006232 -0.0254 0.001
0.006232 -0.0254 -0.001
-0.006232 0.0254 0.001
-0.006232 0.0254 -0.001
0.006232 0.0254 0.001
0.006232 0.0254 -0.001
0.006536 -0.0254 0.001
0.006536 -0.0254 -0.001
-0.006536 0.0254 0.001
-0.006536 0.0254 -0.001
0.006536 0.0254 0.001
0.006536 0.0254 -0.001
0.00684 -0.0254 0.001
0.00684 -0.0254 -0.001
-0.00684 0.0254 0.001
-0.00684 0.0254 -0.001
0.00684 0.0254 0.001
0.00684 0.0254 -0.001
0.007144 -0.0254 0.001
0.007144 -0.0254 -0.001
-0.007144 0.0254 0.001
-0.007144 0.0254 -0.001
0.007144 0.0254 0.001
0.007144 0.0254 -0.001
0.007448 -0.0254 0.001
0.007448 -0.0254 -0.001
-0.007448 0.0254 0.001
-0.007448 0.0254 -0.001
0.007448 0.0254 0.001
0.007448 0.0254 -0.001
0.007752 -0.0254 0.001
0.007752 -0.0254 -0.001
-0.007752 0.0254 0.001
-0.007752 0.0254 -0.001
0.007752 0.0254 0.001
0.007752 0.0254 -0.001
0.008056 -0.0254 0.001
0.008056 -0.0254 -0.001
-0.008056 0.0254 0.001
-0.008056 0.0254 -0.001
0.008056 0.0254 0.001
0.008056 0.0254 -0.001
0.00836 -0.0254 0.001
0.00836 -0.0254 -0.001
-0.00836 0.0254 0.001
-0.00836 0.0254 -0.001
0.00836 0.0254 0.001
0.00836 0.0254 -0.001
0.008664 -0.0254 0.001
0.008664 -0.0254 -0.001
-0.008664 0.0254 0.001
-0.008664 0.0254 -0.001
0.008664 0.0254 0.001
0.008664 0.0254 -0.001
0.008968 -0.0254 0.001
0.008968 -0.0254 -0.001
-0.008968 0.0254 0.001
-0.008968 0.0254 -0.001
0.008968 0.0254 0.001
0.008968 0.0254 -0.001
0.009272 -0.0254 0.001
0.009272 -0.0254 -0.001
[...]
CELL_DATA 2113
FIELD attributes 1
yPlus 1 2113 double
3.33429e-06 4.51292e-05 0.000144069 0.000282891 0.000466199 0.000712738 0.0010544 0.00150797 0.00206709 0.0026968
0.00334977 0.00398913 0.00457848 0.00508591 0.00549521 0.00580317 0.00601509 0.0061412 0.00619372 0.00618384
0.00612542 0.00602703 0.00589948 0.0057474 0.00557867 0.00539623 0.00520898 0.00500892 0.00482018 0.00462618
0.00445655 0.0042909 0.00413757 0.00399023 0.00384858 0.00371173 0.00357851 0.00344868 0.00332241 0.0031999
0.00308129 0.00296683 0.00285683 0.00275167 0.00265177 0.00255754 0.00246933 0.00238734 0.0023118 0.00224295
0.00218125 0.00212705 0.00208105 0.00204345 0.00201596 0.00199823 0.00200464 0.00202853 0.00208525 0.00215912
0.00225692 0.00238174 0.00253752 0.00271979 0.002926 0.00315476 0.00340409 0.00366682 0.00392964 0.00418929
0.00443912 0.00468132 0.00491433 0.00513079 0.00533033 0.00551877 0.00567925 0.00581273 0.00594561 0.00608051
0.00622216 0.00636629 0.00650436 0.00663751 0.00677454 0.0069355 0.00713586 0.00735394 0.00756529 0.00777425
0.00806193 0.00848295 0.00893501 0.0093394 0.00974035 0.0102249 0.0108321 0.0114693 0.0121948 0.0129273
0.0136452 0.0144421 0.015332 0.0162344 0.0172279 0.0183407 0.0195414 0.0207881 0.0220448 0.0233321
0.0246587 0.0260126 0.0273724 0.0287257 0.0300624 0.0313737 0.03266 0.033933 0.0352042 0.0364769
0.0377486 0.0390138 0.0402663 0.0415024 0.0427212 0.0439207 0.0451011 0.0462614 0.0474021 0.0485232
0.049625 0.0507071 0.0517699 0.0528121 0.0538319 0.0548283 0.0558 0.0567443 0.0576597 0.0585447
0.0593997 0.0602269 0.0610314 0.0618232 0.0626108 0.0633953 0.0641766 0.064955 0.0657311 0.0665052
0.0672774 0.0680478 0.0688167 0.0695841 0.0703502 0.0711154 0.0718805 0.0726462 0.0734137 0.0741842
0.0749606 0.0757398 0.0765189 0.0772923 0.0780627 0.0788269 0.0795908 0.0803538 0.0811223 0.0818912
0.0826625 0.0834337 0.0842068 0.0849799 0.085755 0.0865301 0.0873071 0.088084 0.0888628 0.0896417
0.0904226 0.0912039 0.0919872 0.0927716 0.0935585 0.0943471 0.095138 0.0959303 0.0967239 0.0975186
0.0983143 0.0991118 0.0999104 0.100711 0.101513 0.102319 0.103125 0.103934 0.104744 0.105558
0.106372 0.10719 0.108006 0.108827 0.109646 0.11047 0.111293 0.112121 0.112947 0.113779
0.11461 0.115446 0.11628 0.11712 0.117959 0.118803 0.119645 0.120491 0.121335 0.122182
0.123026 0.123871 0.124711 0.125549 0.126375 0.127191 0.127984 0.128749 0.129473 0.130184
0.130883 0.131593 0.132291 0.132998 0.133696 0.134402 0.135097 0.135799 0.136492 0.137192
0.137882 0.138579 0.139268 0.139962 0.140648 0.141339 0.142024 0.142712 0.143395 0.14408
0.14476 0.145444 0.146123 0.146803 0.147482 0.14816 0.148837 0.149512 0.150186 0.150859
0.151531 0.152202 0.152871 0.153539 0.154207 0.154873 0.155538 0.156201 0.156863 0.157524
0.158183 0.158841 0.159497 0.160152 0.160806 0.161458 0.162109 0.162759 0.163406 0.164053
0.164697 0.16534 0.165981 0.166621 0.167258 0.167893 0.168526 0.169157 0.169786 0.170414
0.17104 0.171663 0.172285 0.172904 0.173522 0.174138 0.174753 0.175366 0.175977 0.176586
0.177192 0.177797 0.1784 0.178999 0.179597 0.180193 0.180786 0.181378 0.181968 0.182555
0.183138 0.183717 0.184292 0.184864 0.185433 0.186 0.186569 0.187138 0.187712 0.188292
0.188881 0.18947 0.190053 0.190635 0.191212 0.191787 0.192357 0.192924 0.193487 0.194046
0.194601 0.195152 0.195698 0.196239 0.196776 0.197306 0.197832 0.19835 0.198864 0.19937
0.19987 0.200362 0.200848 0.201327 0.201801 0.20227 0.202742 0.203229 0.203713 0.204197
0.204675 0.205152 0.205624 0.206095 0.206556 0.207019 0.207469 0.207924 0.208361 0.20881
0.209234 0.20968 0.210096 0.210543 0.210955 0.211403 0.211801 0.212222 0.212601 0.213012
0.213389 0.213785 0.214157 0.214545 0.214913 0.215291 0.215647 0.216014 0.216358 0.216712
0.217044 0.21739 0.217717 0.218057 0.218373 0.218698 0.219003 0.219317 0.21961 0.219914
0.220197 0.220491 0.220765 0.221048 0.221312 0.221586 0.221841 0.222104 0.222349 0.222603
0.222839 0.223082 0.223309 0.223543 0.223761 0.223985 0.224193 0.224408 0.224608 0.224814
0.225005 0.225201 0.225385 0.225573 0.22575 0.22593 0.226101 0.226276 0.226444 0.226617
0.226786 0.226953 0.227098 0.227226 0.227339 0.227447 0.227563 0.227662 0.227783 0.227879
0.228034 0.228135 0.228288 0.228365 0.228455 0.228545 0.228634 0.228718 0.228796 0.228866
0.228929 0.228981 0.229023 0.229064 0.22912 0.229184 0.229239 0.229281 0.229317 0.229349
0.229378 0.229403 0.229425 0.229445 0.229462 0.229477 0.229489 0.229498 0.229504 0.229508
0.229509 0.229508 0.229504 0.229497 0.229488 0.229476 0.229462 0.229445 0.229425 0.229404
0.22938 0.229353 0.229324 0.229293 0.229259 0.229223 0.229185 0.229145 0.229102 0.229057
0.22901 0.228961 0.228909 0.228856 0.2288 0.228741 0.228681 0.228619 0.228553 0.228485
0.228415 0.22834 0.228262 0.228179 0.228089 0.227992 0.227892 0.227802 0.227722 0.227635
0.227535 0.227433 0.227321 0.227233 0.227145 0.227061 0.226993 0.226944 0.226884 0.226759
0.226596 0.226458 0.226346 0.226247 0.226168 0.226089 0.225986 0.225869 0.225747 0.225621
0.225493 0.225362 0.225231 0.225097 0.224963 0.224826 0.224687 0.224547 0.224405 0.224261
0.224116 0.223968 0.223819 0.223667 0.223515 0.223359 0.223203 0.223044 0.222884 0.222722
0.222557 0.222391 0.222223 0.222053 0.221881 0.221707 0.22153 0.221352 0.221171 0.220987
0.220801 0.220612 0.22042 0.220227 0.22003 0.21983 0.219629 0.219437 0.219272 0.219134
0.218949 0.218753 0.218595 0.218428 0.21825 0.21805 0.217817 0.217595 0.217381 0.217153
0.216939 0.216717 0.216464 0.21621 0.216003 0.215805 0.215584 0.215318 0.215066 0.21487
0.214692 0.214502 0.2142 0.213837 0.21352 0.213258 0.213004 0.212791 0.212657 0.212323
0.211926 0.211662 0.21144 0.211247 0.211061 0.210736 0.210438 0.210191 0.209885 0.209617
0.20934 0.209223 0.209149 0.209034 0.208856 0.208669 0.208448 0.208207 0.207965 0.207714
0.207445 0.20716 0.206841 0.206482 0.206221 0.206038 0.205796 0.205526 0.205253 0.204982
0.204696 0.20441 0.20414 0.203874 0.203602 0.203325 0.203044 0.202759 0.202472 0.202186
0.201894 0.201589 0.201274 0.200957 0.200637 0.200313 0.199984 0.19965 0.199309 0.198962
0.198608 0.198245 0.197873 0.197491 0.197098 0.196693 0.196275 0.195842 0.195393 0.194925
0.194438 0.193929 0.193396 0.192835 0.192243 0.191617 0.190952 0.190245 0.189489 0.188678
0.1878 0.186848 0.185813 0.184679 0.183449 0.182011 0.18066 0.179102 0.177409 0.175667
0.173866 0.171945 0.16974 0.167305 0.164576 0.161459 0.157878 0.153489 0.125788 0.077097
0.035686 0.0105952 0.00161258 4.34357e-05 0.358441 0.281491 0.196363 0.123888 0.0682955 0.0298678
0.00814996 0.00111632 0.000128886 0.302619 0.23591 0.163599 0.10282 0.0562006 0.0239971 0.00616081
0.00137081 0.00023271 0.48515 0.368923 0.263019 0.173423 0.104238 0.0538272 0.0218353 0.00493035
0.000333248 0.448029 0.344406 0.245236 0.159746 0.0933089 0.0466514 0.0176978 0.00365213 0.000421422
0.403122 0.312717 0.220422 0.141804 0.0816594 0.0399052 0.0143094 0.00266276 0.00050099 0.360815
0.282654 0.198352 0.126528 0.071811 0.034152 0.0115051 0.00199704 0.000581647 0.324564 0.255753
0.178745 0.112908 0.0629681 0.0289899 0.009073 0.00145688 0.000667848 0.290395 0.230005 0.159978
0.0999527 0.0546868 0.0242972 0.00698971 0.000997094 0.000762519 0.256717 0.204539 0.141615 0.0875187
0.0469657 0.0200802 0.00530143 0.00101195 0.000870915 0.410427 0.316875 0.228917 0.151956 0.0909376
0.0467341 0.0188335 0.00442338 0.000994014 0.399297 0.308973 0.221611 0.145257 0.0849658 0.0422592
0.0159925 0.00335813 0.00113431 0.36492 0.285175 0.203248 0.131672 0.0757295 0.0366402 0.013103
0.00249185 0.00129261 0.327486 0.258513 0.183791 0.11799 0.0667125 0.031311 0.0104931 0.00187047
0.00147019 0.293395 0.23343 0.165415 0.105082 0.0583105 0.0264593 0.00823159 0.00134033 0.00166894
0.260654 0.20922 0.147763 0.0928291 0.0505169 0.0221019 0.00634181 0.0013392 0.00189068 0.421473
0.319263 0.231679 0.155944 0.0949086 0.049889 0.0206964 0.00531109 0.000857617 0.00213714 0.406432
0.310439 0.223968 0.149066 0.0892106 0.0455726 0.0180378 0.00417919 0.00240954 0.379587 0.292344
0.210386 0.138824 0.0816261 0.0404809 0.0151288 0.00315564 0.00270818 0.344584 0.268417 0.1926
0.125869 0.0727523 0.0350363 0.0123541 0.00237538 0.00303249 0.309222 0.243242 0.174289 0.112873
0.0640889 0.0298867 0.00986385 0.00177653 0.00338148 0.275944 0.219253 0.156892 0.10061 0.0560262
0.0252159 0.00771521 0.0012553 0.00375451 0.243279 0.195646 0.139797 0.0886919 0.048367 0.0209403
0.0058903 0.00112429 0.00415109 0.400465 0.30296 0.219988 0.148428 0.0908621 0.0476721 0.019683
0.00496094 0.00457057 0.390609 0.295672 0.21361 0.143057 0.0860248 0.0438502 0.0170636 0.0038785
0.00501237 0.36249 0.277774 0.199838 0.132304 0.0781584 0.0387795 0.014322 0.00295736 0.00547659
0.330582 0.255814 0.183754 0.12064 0.0700716 0.0337166 0.011729 0.00227132 0.00596219 0.298313
0.232891 0.16725 0.108907 0.0621245 0.0288899 0.00938217 0.00169213 0.0064671 0.265955 0.209973
0.150917 0.097468 0.0545549 0.0244499 0.00734879 0.00118579 0.00698846 0.233693 0.187113 0.134656
0.086193 0.0472584 0.0203478 0.0056097 0.000969895 0.00751832 0.393729 0.297989 0.21619 0.146025
0.0895451 0.0471461 0.0192925 0.0047839 0.00805264 0.390131 0.294909 0.212635 0.142458 0.0859198
0.0439546 0.0169561 0.00379476 0.00858899 0.368479 0.281392 0.202117 0.133967 0.0794491 0.0395359
0.0144756 0.00298529 0.00912907 0.344338 0.265079 0.190875 0.126701 0.00967653 0.0102298 0.0107862
0.0113451 0.0119061 0.0124685 0.0130459 0.0136333 0.0142363 0.0149206 0.0155637 0.0162003 0.016804
0.0173945 0.0179654 0.0185189 0.0190487 0.0195459 0.0200111 0.0204473 0.0208552 0.0212349 0.0215862
0.0219084 0.0221994 0.022456 0.0226776 0.0228697 0.0230419 0.0231947 0.0233145 0.0234061 0.0234629
0.0234642 0.0234383 0.0234422 0.0233271 0.0232442 0.0231592 0.0231158 0.0230382 0.0229059 0.0227369
0.0225535 0.022364 0.0221614 0.0219405 0.0217035 0.0214389 0.0211687 0.0209096 0.0206574 0.0204129
0.02018 0.0199674 0.0197867 0.0196614 0.0196182 0.0196877 0.0199128 0.0203622 0.0211333 0.0226556
0.025224 0.0312112 0.0373517 0.0461706 0.0507924 0.188248 0.144279 0.103532 0.0685008 0.207184
0.157459 0.112822 0.0747072 0.0442442 0.0219614 0.00800988 0.0016389 0.224157 0.168651 0.121253
0.0811542 0.0489453 0.0250204 0.0096418 0.00214861 0.229188 0.172682 0.125003 0.0844198 0.0518103
0.0273051 0.0111712 0.00276683 0.137211 0.109429 0.0788037 0.0505491 0.0277596 0.0119521 0.00329139
0.000564482 0.157722 0.123941 0.0891378 0.0577299 0.0324016 0.0145382 0.0043683 0.000708452 0.177901
0.138217 0.099326 0.0648888 0.0371517 0.017317 0.00562637 0.00102042 0.197795 0.152248 0.109365
0.0720071 0.0419902 0.020273 0.00706166 0.00137603 0.218002 0.165826 0.11933 0.0793628 0.0471296
0.0234666 0.00866361 0.00179693 0.237595 0.178387 0.128446 0.0862264 0.0521526 0.0267048 0.01042
0.00237462 0.24537 0.184304 0.133539 0.0902797 0.0555158 0.029285 0.0121239 0.00307021 0.148629
0.118799 0.0853629 0.0546188 0.0299943 0.0130223 0.00367493 0.000689074 0.169579 0.133678 0.0960985
0.0621696 0.0349121 0.0157839 0.00484891 0.000805687 0.190406 0.148404 0.106711 0.0697107 0.0399548
0.0187502 0.00621467 0.00114276 0.212231 0.163518 0.117615 0.0775187 0.0452635 0.0219648 0.00777673
0.00152443 0.234583 0.17814 0.128347 0.0855804 0.0509751 0.0254986 0.00956183 0.00202495 0.253945
0.191155 0.137646 0.0921414 0.055765 0.0287251 0.0114531 0.00269293 0.264835 0.198118 0.143514
0.0971678 0.0597612 0.0317434 0.0132416 0.00345378 0.000536384 0.161698 0.129041 0.0925184 0.0591489
0.0325769 0.0143001 0.00414692 0.000842259 0.184064 0.14492 0.10402 0.0672651 0.0378693 0.0172844
0.0054368 0.000928032 0.20685 0.161033 0.11568 0.0755793 0.0434389 0.0205636 0.0069611 0.00130121
0.231087 0.177471 0.127733 0.0843804 0.0494521 0.0241694 0.00870544 0.00173133 0.255862 0.193652
0.139607 0.0932956 0.0558171 0.028093 0.0107195 0.00233402 0.270099 0.204233 0.147927 0.0994912
0.0605793 0.031447 0.0127731 0.0031057 0.168169 0.135113 0.0963858 0.0608835 0.0329141 0.0140305
0.00381949 0.000667242 0.199441 0.157617 0.112539 0.0719381 0.0397775 0.0176483 0.00524534 0.000818145
0.235467 0.183385 0.130911 0.084544 0.0477425 0.0219895 0.00707411 0.00124442 0.278626 0.214039
0.152514 0.0992378 0.05707 0.0272013 0.00937834 0.00178454 0.334367 0.252438 0.179753 0.117961
0.0689842 0.033826 0.0123341 0.00250458 0.408828 0.302633 0.214706 0.141781 0.0842768 0.0424061
0.0163319 0.00365284 0.490068 0.36103 0.256235 0.169541 0.102138 0.0528222 0.0215569 0.00536153
0.348563 0.272524 0.190885 0.118994 0.0637785 0.0271224 0.00747992 0.00139118 0.471857 0.377989
0.269194 0.170479 0.0932922 0.0411493 0.0122643 0.00192091 2.13736 1.81571 1.54324 1.31314
1.11943 0.95697 0.821404 0.708765 0.615717 0.539312 0.476913 0.426162 0.38495 0.35144
0.324058 0.301506 0.282738 0.266941 0.253527 0.242038 0.232189 0.22367 0.216345 0.209994
0.204571 0.199956 0.196132 0.193046 0.190674 0.188994 0.187983 0.187617 0.187874 0.188733
0.190176 0.192187 0.19475 0.197862 0.201511 0.205703 0.210151 0.214652 0.219127 0.223578
0.228012 0.232464 0.236944 0.241488 0.246099 0.250809 0.255613 0.260541 0.265583 0.270765
0.276072 0.281529 0.287122 0.292871 0.298761 0.304806 0.310995 0.317333 0.323816 0.330442
0.337209 0.344114 0.351155 0.35834 0.366486 0.376025 0.385727 0.395163 0.404324 0.413294
0.421999 0.430478 0.438712 0.446571 0.454149 0.461347 0.468465 0.47559 0.482875 0.490164
0.497459 0.504587 0.511659 0.518621 0.525316 0.531811 0.538188 0.544463 0.550608 0.556597
0.562416 0.568056 0.57351 0.578781 0.583865 0.588761 0.593468 0.597988 0.602322 0.606474
0.610446 0.614239 0.617848 0.62128 0.62454 0.62764 0.630581 0.633371 0.636013 0.638511
0.640872 0.643103 0.645215 0.647213 0.649099 0.650879 0.652557 0.654136 0.655619 0.657009
0.658312 0.659533 0.660677 0.661745 0.662742 0.663672 0.664539 0.665345 0.666092 0.666784
0.667422 0.668011 0.668553 0.669055 0.669527 0.670015 0.670491 0.670933 0.671331 0.671686
0.671996 0.672262 0.672485 0.672666 0.672806 0.672907 0.672968 0.672992 0.672981 0.672933
0.672853 0.67274 0.672596 0.672421 0.672218 0.671986 0.671727 0.671443 0.671135 0.670803
0.670448 0.670072 0.669675 0.669258 0.668824 0.668371 0.667903 0.667417 0.666918 0.666404
0.665877 0.665337 0.664786 0.664224 0.663651 0.663068 0.662476 0.661877 0.661269 0.660654
0.660033 0.659405 0.65877 0.65813 0.657487 0.656837 0.656181 0.655523 0.654862 0.654198
0.653532 0.652863 0.652192 0.651519 0.650844 0.650168 0.649489 0.648811 0.64813 0.647449
0.646767 0.646083 0.6454 0.644716 0.644031 0.643345 0.64266 0.641975 0.641288 0.640602
0.639916 0.639228 0.638542 0.637854 0.637167 0.63648 0.635793 0.635105 0.634416 0.633728
0.63304 0.63235 0.631661 0.630972 0.630283 0.629591 0.628901 0.62821 0.627519 0.626826
0.626134 0.625441 0.624747 0.624052 0.623358 0.622662 0.621965 0.621268 0.62057 0.619871
0.619171 0.61847 0.617769 0.617066 0.616363 0.615658 0.614952 0.614245 0.613537 0.612828
0.612117 0.611405 0.610692 0.609977 0.609261 0.608544 0.607825 0.607105 0.606384 0.60566
0.604936 0.604209 0.603481 0.602752 0.602021 0.601288 0.600553 0.599817 0.599079 0.598338
0.597597 0.596853 0.596107 0.595359 0.59461 0.593859 0.593106 0.59235 0.591592 0.590832
0.590071 0.589307 0.588542 0.587773 0.587003 0.58623 0.585456 0.584678 0.5839 0.583118
0.582334 0.581548 0.580759 0.579968 0.579174 0.57838 0.577581 0.57678 0.575977 0.575172
0.574363 0.573553 0.57274 0.571924 0.571106 0.570285 0.569462 0.568636 0.567806 0.566975
0.566141 0.565306 0.564466 0.563624 0.562779 0.561931 0.561082 0.560229 0.559373 0.558515
0.557654 0.556791 0.555925 0.555054 0.554183 0.553308 0.55243 0.55155 0.550667 0.549782
0.548892 0.548002 0.547108 0.546211 0.545311 0.544409 0.543503 0.542595 0.541685 0.540771
0.539855 0.538936 0.538014 0.537089 0.536163 0.535232 0.5343 0.533364 0.532427 0.531486
0.530542 0.529597 0.528648 0.527697 0.526744 0.525786 0.524827 0.523865 0.522901 0.521935
0.520966 0.519993 0.519019 0.518043 0.517065 0.516083 0.515098 0.514112 0.513123 0.512132
0.51114 0.510143 0.509145 0.508146 0.507144 0.506138 0.505132 0.504124 0.503114 0.5021
0.501085 0.500069 0.499049 0.498028 0.497006 0.495981 0.494956 0.493927 0.492897 0.491866
0.490832 0.489796 0.48876 0.487723 0.486682 0.48564 0.484599 0.483553 0.482508 0.481461
0.480412 0.479363 0.478312 0.47726 0.476207 0.475153 0.474097 0.473041 0.471984 0.470926
0.469866 0.468807 0.467746 0.466684 0.465621 0.464558 0.463496 0.462432 0.461367 0.460301
0.459235 0.45817 0.457103 0.456036 0.454969 0.453902 0.452835 0.451768 0.450701 0.449632
0.448565 0.447497 0.446429 0.445362 0.444296 0.443229 0.442162 0.441096 0.440029 0.438963
0.437899 0.436834 0.435771 0.434706 0.433645 0.432582 0.431521 0.43046 0.4294 0.428342
0.427285 0.426227 0.425171 0.424116 0.423062 0.422009 0.420956 0.419907 0.418857 0.41781
0.416763 0.415717 0.414674 0.413631 0.412589 0.411551 0.410512 0.409476 0.408441 0.407407
0.406376 0.405346 0.404318 0.403291 0.402267 0.401244 0.400223 0.399204 0.398187 0.397172
0.396159 0.395148 0.394139 0.393132 0.392127 0.391124 0.390124 0.389125 0.388129 0.387135
0.386144 0.385154 0.384167 0.383182 0.382199 0.381219 0.380241 0.379266 0.378293 0.377322
0.376354 0.375389 0.374425 0.373465 0.372506 0.371551 0.370598 0.369647 0.368699 0.367754
0.366811 0.365871 0.364933 0.363998 0.363065 0.362136 0.361209 0.360284 0.359362 0.358443
0.357527 0.356613 0.355701 0.354793 0.353887 0.352984 0.352084 0.351186 0.350291 0.349399
0.348509 0.347622 0.346738 0.345857 0.344978 0.344102 0.343228 0.342358 0.34149 0.340624
0.339762 0.338902 0.338044 0.33719 0.336338 0.335488 0.334641 0.333797 0.332956 0.332117
0.331281 0.330447 0.329616 0.328787 0.327961 0.327138 0.326317 0.325499 0.324683 0.32387
0.323059 0.322251 0.321445 0.320642 0.319841 0.319043 0.318246 0.317453 0.316661 0.315873
0.315086 0.314302 0.31352 0.31274 0.311963 0.311188 0.310415 0.309644 0.308876 0.30811
0.307345 0.306583 0.305824 0.305066 0.30431 0.303557 0.302805 0.302056 0.301308 0.300562
0.299819 0.299077 0.298337 0.297599 0.296862 0.296128 0.295395 0.294665 0.293935 0.293208
0.292482 0.291758 0.291035 0.290314 0.289595 0.288877 0.288161 0.287445 0.286732 0.28602
0.285309 0.284599 0.283891 0.283184 0.282478 0.281774 0.28107 0.280368 0.279666 0.278966
0.278267 0.277568 0.276871 0.276174 0.275478 0.274783 0.274089 0.273395 0.272702 0.27201
0.271318 0.270626 0.269936 0.269245 0.268555 0.267865 0.267175 0.266486 0.265796 0.265107
0.264417 0.263728 0.263038 0.262348 0.261659 0.260968 0.260278 0.259587 0.258895 0.258203
0.25751 0.256816 0.256122 0.255427 0.25473 0.254033 0.253334 0.252635 0.251934 0.251231
0.250527 0.249822 0.249114 0.248405 0.247694 0.246981 0.246266 0.245548 0.244828 0.244106
0.243381 0.242653 0.241922 0.241188 0.240451 0.23971 0.238966 0.238218 0.237467 0.236711
0.235951 0.235186 0.234417 0.233643 0.232864 0.232079 0.231289 0.230493 0.22969 0.228882
0.228066 0.227244 0.226414 0.225577 0.224731 0.223877 0.223014 0.222142 0.221259 0.220367
0.219464 0.218549 0.217622 0.216682 0.215729 0.214762 0.213779 0.212781 0.211766 0.210733
0.209681 0.208609 0.207515 0.206398 0.205256 0.204088 0.202891 0.201664 0.200402 0.199106
0.197769 0.19639 0.194964 0.193487 0.191952 0.190355 0.188686 0.18694 0.185102 0.183165
0.181104 0.178914 0.176544 0.173996 0.171173 0.167931 0.142075 0.0934667 0.0482167 0.0165815
0.00290372 3.91599 3.66008 3.42344 3.20426 3.00098 2.81221 2.63679 2.47368 2.32196
2.18082 2.0495 1.92733 1.81368 1.708 1.60977 1.5185 1.43372 1.35501 1.28194
1.21416 1.1513 1.09306 1.03914 0.989245 0.943106 0.900453 0.861029 0.824599 0.790945
0.759857 0.731151 0.704651 0.680194 0.65763 0.636829 0.617659 0.600018 0.583792 0.568899
0.555242 0.542762 0.531375 0.52104 0.511684 0.503285 0.49578 0.48916 0.483369 0.478408
0.474225 0.470821 0.468162 0.46625 0.465074 0.46463 0.464927 0.465957 0.467734 0.470246
0.473514 0.477492 0.482689
