/*--------------------------------*- C++ -*----------------------------------*\
| =========                 |                                                 |
| \\      /  F ield         | OpenFOAM: The Open Source CFD Toolbox           |
|  \\    /   O peration     | Version:  2206                                  |
|   \\  /    A nd           | Website:  www.openfoam.com                      |
|    \\/     M anipulation  |                                                 |
\*---------------------------------------------------------------------------*/
FoamFile
{
    version     2.0;
    format      ascii;
    arch        "LSB;label=32;scalar=64";
    class       volScalarField;
    location    "0.8";
    object      k;
}
// * * * * * * * * * * * * * * * * * * * * * * * * * * * * * * * * * * * * * //

dimensions      [0 2 -2 0 0 0 0];

internalField   nonuniform List<scalar> 
1875
(
8.55202e-05
5.31667e-05
3.76494e-05
2.91148e-05
2.39323e-05
2.07036e-05
1.87036e-05
1.75352e-05
1.69649e-05
1.68286e-05
1.69942e-05
1.73522e-05
1.7817e-05
1.83302e-05
1.88596e-05
1.93952e-05
1.99431e-05
2.05299e-05
2.11948e-05
2.19889e-05
2.29781e-05
2.42491e-05
2.59201e-05
2.81565e-05
3.1195e-05
3.5376e-05
4.11886e-05
4.93247e-05
6.07291e-05
7.66087e-05
9.8335e-05
0.000127176
0.000163904
0.00020858
0.000261166
0.000317867
0.000367801
0.000402794
0.000415165
0.000401209
0.0003627
0.000306609
0.000243391
0.000181659
0.000128751
8.96845e-05
6.3188e-05
4.60412e-05
3.52809e-05
2.85519e-05
2.44146e-05
2.19081e-05
2.04224e-05
1.95715e-05
1.91148e-05
1.89053e-05
1.88494e-05
1.88798e-05
1.89495e-05
1.90245e-05
1.9098e-05
1.91738e-05
1.92473e-05
1.93155e-05
1.93764e-05
1.9429e-05
1.94734e-05
1.95103e-05
1.95405e-05
1.95649e-05
1.95844e-05
1.95998e-05
1.9612e-05
1.96216e-05
1.96287e-05
8.51359e-05
5.37132e-05
3.78154e-05
2.87368e-05
2.31988e-05
1.95975e-05
1.72259e-05
1.56894e-05
1.47501e-05
1.42529e-05
1.40836e-05
1.41483e-05
1.4368e-05
1.46793e-05
1.50365e-05
1.541e-05
1.57688e-05
1.61104e-05
1.64439e-05
1.67844e-05
1.7152e-05
1.75722e-05
1.80771e-05
1.87079e-05
1.9519e-05
2.05829e-05
2.19946e-05
2.38762e-05
2.6376e-05
2.96552e-05
3.38615e-05
3.91109e-05
4.55311e-05
5.33761e-05
6.31658e-05
7.5662e-05
9.31336e-05
0.000113106
0.000132961
0.000148981
0.000157902
0.00015789
0.000148917
0.000132757
0.000112085
9.02563e-05
7.01552e-05
5.35605e-05
4.10153e-05
3.21841e-05
2.6279e-05
2.24819e-05
2.01064e-05
1.86359e-05
1.77426e-05
1.72089e-05
1.69029e-05
1.67308e-05
1.66433e-05
1.66047e-05
1.65948e-05
1.66017e-05
1.66178e-05
1.66376e-05
1.66582e-05
1.66776e-05
1.6695e-05
1.67101e-05
1.6723e-05
1.67336e-05
1.67424e-05
1.67496e-05
1.67555e-05
1.67605e-05
1.6765e-05
8.50294e-05
5.35901e-05
3.78395e-05
2.871e-05
2.29214e-05
1.90398e-05
1.63591e-05
1.44707e-05
1.31457e-05
1.22413e-05
1.16579e-05
1.1321e-05
1.11693e-05
1.11512e-05
1.1224e-05
1.1355e-05
1.15153e-05
1.16746e-05
1.18205e-05
1.19465e-05
1.20516e-05
1.21393e-05
1.22171e-05
1.22972e-05
1.23975e-05
1.25413e-05
1.27565e-05
1.30711e-05
1.34997e-05
1.40154e-05
1.45252e-05
1.49074e-05
1.51442e-05
1.5401e-05
1.59481e-05
1.71636e-05
1.96588e-05
2.50956e-05
3.29829e-05
4.24147e-05
5.1887e-05
5.97709e-05
6.47491e-05
6.61197e-05
6.38421e-05
5.85188e-05
5.12173e-05
4.31584e-05
3.54347e-05
2.88108e-05
2.36186e-05
1.98353e-05
1.72356e-05
1.55307e-05
1.44576e-05
1.38179e-05
1.34462e-05
1.32367e-05
1.31298e-05
1.30794e-05
1.30646e-05
1.30681e-05
1.30798e-05
1.30943e-05
1.31086e-05
1.31215e-05
1.31324e-05
1.31412e-05
1.31481e-05
1.31536e-05
1.31579e-05
1.31612e-05
1.31639e-05
1.31663e-05
1.31685e-05
8.49813e-05
5.3332e-05
3.7573e-05
2.85025e-05
2.27318e-05
1.88015e-05
1.59984e-05
1.39381e-05
1.24031e-05
1.12581e-05
1.04058e-05
9.78337e-06
9.34312e-06
9.04629e-06
8.86021e-06
8.75749e-06
8.71955e-06
8.72177e-06
8.74533e-06
8.7754e-06
8.80151e-06
8.81779e-06
8.82323e-06
8.82202e-06
8.8238e-06
8.8428e-06
8.89495e-06
8.98786e-06
9.09281e-06
9.09681e-06
8.80016e-06
8.07745e-06
7.06161e-06
6.03416e-06
5.18699e-06
4.66832e-06
4.5766e-06
5.35378e-06
7.35936e-06
1.06554e-05
1.50063e-05
1.98673e-05
2.45056e-05
2.81975e-05
3.03947e-05
3.08553e-05
2.9689e-05
2.72788e-05
2.41414e-05
2.08088e-05
1.77206e-05
1.51427e-05
1.31685e-05
1.1767e-05
1.08422e-05
1.02808e-05
9.98017e-06
9.85354e-06
9.82527e-06
9.85056e-06
9.90018e-06
9.95976e-06
1.00186e-05
1.00711e-05
1.0115e-05
1.01501e-05
1.01772e-05
1.01974e-05
1.02123e-05
1.02229e-05
1.02303e-05
1.02355e-05
1.02392e-05
1.02417e-05
1.02434e-05
8.49612e-05
5.31739e-05
3.7309e-05
2.82206e-05
2.24722e-05
1.8563e-05
1.57593e-05
1.36705e-05
1.20733e-05
1.08322e-05
9.85868e-06
9.0957e-06
8.50311e-06
8.04977e-06
7.70898e-06
7.46024e-06
7.28847e-06
7.18063e-06
7.12153e-06
7.09732e-06
7.09617e-06
7.10895e-06
7.13149e-06
7.16312e-06
7.20856e-06
7.27678e-06
7.37599e-06
7.49437e-06
7.5441e-06
7.29248e-06
6.46979e-06
5.14197e-06
3.71967e-06
2.57159e-06
1.73742e-06
1.22052e-06
9.72601e-07
9.93142e-07
1.4251e-06
2.38195e-06
3.95188e-06
6.09944e-06
8.62595e-06
1.11998e-05
1.34314e-05
1.49885e-05
1.56917e-05
1.55373e-05
1.46798e-05
1.33742e-05
1.19017e-05
1.04966e-05
9.30988e-06
8.4087e-06
7.79558e-06
7.43397e-06
7.27051e-06
7.25005e-06
7.32751e-06
7.45598e-06
7.60141e-06
7.74628e-06
7.879e-06
7.99449e-06
8.09036e-06
8.16709e-06
8.22667e-06
8.27174e-06
8.30504e-06
8.32913e-06
8.34622e-06
8.35814e-06
8.3663e-06
8.37177e-06
8.37472e-06
8.49527e-05
5.30933e-05
3.71391e-05
2.79953e-05
2.22287e-05
1.8324e-05
1.55326e-05
1.34524e-05
1.18529e-05
1.05949e-05
9.59094e-06
8.78377e-06
8.13465e-06
7.6161e-06
7.20713e-06
6.89124e-06
6.65609e-06
6.49312e-06
6.39179e-06
6.34139e-06
6.33093e-06
6.35213e-06
6.39968e-06
6.47119e-06
6.56848e-06
6.6964e-06
6.85402e-06
6.99639e-06
6.92912e-06
6.25807e-06
4.79885e-06
3.0586e-06
1.65335e-06
8.15051e-07
3.43699e-07
1.33883e-07
6.58775e-08
7.38724e-08
1.75478e-07
4.37594e-07
9.57377e-07
1.7975e-06
2.9545e-06
4.3381e-06
5.78201e-06
7.05821e-06
7.99298e-06
8.48307e-06
8.51122e-06
8.1657e-06
7.59018e-06
6.93696e-06
6.33105e-06
5.85234e-06
5.53576e-06
5.38165e-06
5.36886e-06
5.46576e-06
5.6384e-06
5.8554e-06
6.09087e-06
6.3208e-06
6.53146e-06
6.7158e-06
6.87109e-06
6.99767e-06
7.09791e-06
7.17529e-06
7.23364e-06
7.27672e-06
7.3079e-06
7.33007e-06
7.34553e-06
7.35598e-06
7.36171e-06
8.49487e-05
5.3053e-05
3.7044e-05
2.78521e-05
2.20538e-05
1.81337e-05
1.53393e-05
1.3263e-05
1.16693e-05
1.04153e-05
9.41106e-06
8.5982e-06
7.93778e-06
7.40285e-06
6.97485e-06
6.63954e-06
6.38579e-06
6.20571e-06
6.09087e-06
6.03263e-06
6.02276e-06
6.05541e-06
6.124e-06
6.22545e-06
6.36044e-06
6.53091e-06
6.72316e-06
6.8339e-06
6.49636e-06
5.18866e-06
3.15304e-06
1.41954e-06
4.43402e-07
1.11142e-07
1.70616e-08
2.69901e-09
1.00146e-09
2.20809e-09
1.05489e-08
4.84834e-08
2.00541e-07
5.17366e-07
1.02413e-06
1.71651e-06
2.53474e-06
3.36146e-06
4.08316e-06
4.60358e-06
4.87126e-06
4.8985e-06
4.74721e-06
4.50369e-06
4.25278e-06
4.05942e-06
3.96104e-06
3.97014e-06
4.08075e-06
4.27535e-06
4.53062e-06
4.82176e-06
5.1259e-06
5.42456e-06
5.70255e-06
5.94952e-06
6.16134e-06
6.33733e-06
6.47942e-06
6.59124e-06
6.67717e-06
6.7418e-06
6.78943e-06
6.82389e-06
6.84833e-06
6.86514e-06
6.87471e-06
8.49467e-05
5.30323e-05
3.69917e-05
2.77676e-05
2.19427e-05
1.80038e-05
1.51981e-05
1.31169e-05
1.15229e-05
1.02715e-05
9.27103e-06
8.46196e-06
7.80458e-06
7.27194e-06
6.84531e-06
6.51108e-06
6.25882e-06
6.08037e-06
5.96801e-06
5.91421e-06
5.91174e-06
5.95423e-06
6.03668e-06
6.15661e-06
6.31452e-06
6.50954e-06
6.70825e-06
6.71267e-06
5.92441e-06
3.88766e-06
1.6564e-06
3.84328e-07
4.20025e-08
2.24628e-09
0.00015
0.00015
0.00015
0.00015
0.00015
1.59791e-09
2.16006e-08
1.60295e-07
3.26486e-07
6.68238e-07
1.12278e-06
1.62854e-06
2.11848e-06
2.52382e-06
2.80253e-06
2.94251e-06
2.96884e-06
2.92919e-06
2.87701e-06
2.85783e-06
2.90142e-06
3.02163e-06
3.21825e-06
3.48144e-06
3.79499e-06
4.13961e-06
4.4956e-06
4.84514e-06
5.1739e-06
5.47163e-06
5.73142e-06
5.95113e-06
6.13172e-06
6.27628e-06
6.38924e-06
6.47555e-06
6.54015e-06
6.58755e-06
6.62166e-06
6.64548e-06
6.65955e-06
8.49457e-05
5.30209e-05
3.69618e-05
2.77176e-05
2.18745e-05
1.79207e-05
1.51039e-05
1.30152e-05
1.14172e-05
1.01646e-05
9.16531e-06
8.35913e-06
7.70596e-06
7.17852e-06
6.75783e-06
6.43008e-06
6.18473e-06
6.01319e-06
5.90762e-06
5.86059e-06
5.86517e-06
5.91525e-06
6.00632e-06
6.13651e-06
6.30674e-06
6.51283e-06
6.6918e-06
6.50896e-06
5.12286e-06
2.49523e-06
5.82154e-07
4.19986e-08
0.00015
0.00015
0.00015
0.00015
0.00015
0.00015
0.00015
0.00015
9.17537e-07
2.12682e-08
7.56221e-08
2.26865e-07
4.77902e-07
7.86343e-07
1.10667e-06
1.39641e-06
1.62603e-06
1.78297e-06
1.87792e-06
1.93713e-06
1.99295e-06
2.07531e-06
2.20532e-06
2.39416e-06
2.64374e-06
2.94842e-06
3.29687e-06
3.67418e-06
4.06352e-06
4.44839e-06
4.81421e-06
5.14962e-06
5.44724e-06
5.70297e-06
5.91646e-06
6.08996e-06
6.22748e-06
6.33399e-06
6.41472e-06
6.47469e-06
6.51834e-06
6.54918e-06
6.56788e-06
8.49451e-05
5.30142e-05
3.6944e-05
2.76874e-05
2.18327e-05
1.78688e-05
1.50438e-05
1.29488e-05
1.13464e-05
1.00914e-05
9.09143e-06
8.28627e-06
7.63565e-06
7.11213e-06
6.69648e-06
6.37464e-06
6.13571e-06
5.97064e-06
5.87119e-06
5.82969e-06
5.83909e-06
5.89333e-06
5.98821e-06
6.12246e-06
6.29748e-06
6.5042e-06
6.63873e-06
6.19075e-06
4.14503e-06
1.25174e-06
1.0576e-07
1.50207e-09
0.00015
0.00015
0.00015
0.00015
0.00015
0.00015
0.00015
0.00015
0.00015
1.52452e-08
1.5798e-08
5.79023e-08
1.74023e-07
3.63541e-07
5.69884e-07
7.70587e-07
9.473e-07
1.09251e-06
1.21135e-06
1.31846e-06
1.43279e-06
1.57277e-06
1.75252e-06
1.98049e-06
2.25928e-06
2.58593e-06
2.95258e-06
3.34744e-06
3.75613e-06
4.16332e-06
4.55452e-06
4.9176e-06
5.2437e-06
5.52772e-06
5.76788e-06
5.96551e-06
6.12401e-06
6.24814e-06
6.34321e-06
6.41451e-06
6.4669e-06
6.50428e-06
6.52736e-06
8.49447e-05
5.30102e-05
3.69334e-05
2.76694e-05
2.18076e-05
1.78374e-05
1.50071e-05
1.29078e-05
1.13022e-05
1.0045e-05
9.04404e-06
8.239e-06
7.58963e-06
7.06843e-06
6.65606e-06
6.33822e-06
6.10374e-06
5.94311e-06
5.84772e-06
5.80957e-06
5.82133e-06
5.87688e-06
5.97215e-06
6.10635e-06
6.28104e-06
6.48045e-06
6.55e-06
5.78541e-06
3.09501e-06
3.96918e-07
1.26241e-08
0.00015
0.00015
0.00015
0.00015
0.00015
0.00015
0.00015
0.00015
0.00015
0.00015
0.00015
1.41692e-09
1.63908e-08
6.12394e-08
1.5328e-07
2.79001e-07
4.21726e-07
5.55976e-07
6.83231e-07
8.07191e-07
9.35891e-07
1.0801e-06
1.25084e-06
1.45731e-06
1.70604e-06
1.99988e-06
2.3375e-06
2.71327e-06
3.11749e-06
3.53743e-06
3.95867e-06
4.36681e-06
4.74918e-06
5.09595e-06
5.40086e-06
5.66124e-06
5.87749e-06
6.05248e-06
6.19068e-06
6.29737e-06
6.37799e-06
6.43766e-06
6.48053e-06
6.50734e-06
8.49445e-05
5.30081e-05
3.69278e-05
2.76597e-05
2.1794e-05
1.78205e-05
1.49872e-05
1.28855e-05
1.1278e-05
1.00195e-05
9.01784e-06
8.21272e-06
7.56393e-06
7.04397e-06
6.63342e-06
6.31787e-06
6.08592e-06
5.92778e-06
5.83454e-06
5.7979e-06
5.81034e-06
5.86557e-06
5.95961e-06
6.0919e-06
6.26374e-06
6.45194e-06
6.44935e-06
5.35914e-06
2.08738e-06
8.03619e-08
1.54789e-09
0.00015
0.00015
0.00015
0.00015
0.00015
0.00015
0.00015
0.00015
0.00015
0.00015
0.00015
2.78944e-09
1.41825e-08
2.49205e-08
6.77114e-08
1.38595e-07
2.32021e-07
3.4201e-07
4.54172e-07
5.76047e-07
7.12556e-07
8.69966e-07
1.0554e-06
1.27538e-06
1.53504e-06
1.83712e-06
2.181e-06
2.56209e-06
2.97187e-06
3.3985e-06
3.82814e-06
4.24653e-06
4.64073e-06
5.00039e-06
5.31857e-06
5.59193e-06
5.82033e-06
6.00624e-06
6.15391e-06
6.26853e-06
6.3556e-06
6.42036e-06
6.46713e-06
6.49663e-06
8.49445e-05
5.30074e-05
3.69259e-05
2.76566e-05
2.17897e-05
1.78151e-05
1.49808e-05
1.28784e-05
1.12703e-05
1.00114e-05
9.0095e-06
8.20439e-06
7.55586e-06
7.03641e-06
6.6266e-06
6.31195e-06
6.08095e-06
5.92369e-06
5.83114e-06
5.79488e-06
5.80727e-06
5.86195e-06
5.95491e-06
6.0857e-06
6.25533e-06
6.43609e-06
6.38622e-06
5.05909e-06
1.41641e-06
2.5299e-08
2.81116e-10
0.00015
0.00015
0.00015
0.00015
0.00015
0.00015
0.00015
0.00015
0.00015
0.00015
0.00015
5.17924e-08
1.6634e-08
1.55708e-08
4.29684e-08
9.28397e-08
1.6513e-07
2.60879e-07
3.67155e-07
4.87867e-07
6.27547e-07
7.9066e-07
9.82828e-07
1.20933e-06
1.47433e-06
1.78041e-06
2.12706e-06
2.51004e-06
2.92127e-06
3.34938e-06
3.78088e-06
4.20179e-06
4.59921e-06
4.96273e-06
5.28522e-06
5.56307e-06
5.79594e-06
5.98608e-06
6.13759e-06
6.25556e-06
6.34546e-06
6.41253e-06
6.46113e-06
6.49191e-06
8.49445e-05
5.30081e-05
3.69278e-05
2.76597e-05
2.1794e-05
1.78205e-05
1.49872e-05
1.28856e-05
1.12781e-05
1.00197e-05
9.01807e-06
8.21313e-06
7.56461e-06
7.04501e-06
6.6349e-06
6.31983e-06
6.08833e-06
5.93056e-06
5.83752e-06
5.80086e-06
5.81297e-06
5.86755e-06
5.96059e-06
6.09171e-06
6.26272e-06
6.45328e-06
6.47013e-06
5.45132e-06
2.20871e-06
8.06469e-08
1.59225e-09
0.00015
0.00015
0.00015
0.00015
0.00015
0.00015
0.00015
0.00015
0.00015
0.00015
0.00015
2.57403e-09
1.02406e-08
2.32115e-08
6.34526e-08
1.29489e-07
2.17625e-07
3.23673e-07
4.34892e-07
5.58971e-07
7.00212e-07
8.63759e-07
1.05547e-06
1.2808e-06
1.54415e-06
1.8479e-06
2.19137e-06
2.57024e-06
2.97643e-06
3.39873e-06
3.82389e-06
4.23823e-06
4.6292e-06
4.98668e-06
5.30378e-06
5.57704e-06
5.80616e-06
5.99336e-06
6.14263e-06
6.25898e-06
6.34773e-06
6.41403e-06
6.46213e-06
6.49262e-06
8.49447e-05
5.30102e-05
3.69334e-05
2.76694e-05
2.18076e-05
1.78374e-05
1.50071e-05
1.29079e-05
1.13023e-05
1.00453e-05
9.04449e-06
8.23979e-06
7.59093e-06
7.07041e-06
6.65885e-06
6.34193e-06
6.10832e-06
5.94841e-06
5.85341e-06
5.81518e-06
5.82626e-06
5.88043e-06
5.97365e-06
6.10534e-06
6.27785e-06
6.47913e-06
6.5722e-06
5.89976e-06
3.29037e-06
3.97474e-07
1.23174e-08
0.00015
0.00015
0.00015
0.00015
0.00015
0.00015
0.00015
0.00015
0.00015
0.00015
0.00015
1.19584e-09
1.31455e-08
5.47891e-08
1.36637e-07
2.47291e-07
3.74393e-07
4.97916e-07
6.21843e-07
7.50282e-07
8.89808e-07
1.04844e-06
1.23417e-06
1.45369e-06
1.71183e-06
2.01068e-06
2.34893e-06
2.72154e-06
3.11985e-06
3.53236e-06
3.94588e-06
4.34709e-06
4.72408e-06
5.0674e-06
5.37087e-06
5.63159e-06
5.84962e-06
6.02734e-06
6.16879e-06
6.27887e-06
6.36275e-06
6.42537e-06
6.47076e-06
6.49944e-06
8.49451e-05
5.30142e-05
3.6944e-05
2.76874e-05
2.18327e-05
1.78688e-05
1.50438e-05
1.29489e-05
1.13466e-05
1.00917e-05
9.09207e-06
8.2874e-06
7.63749e-06
7.11491e-06
6.70041e-06
6.37983e-06
6.14214e-06
5.97805e-06
5.87912e-06
5.83746e-06
5.84581e-06
5.898e-06
5.98982e-06
6.12027e-06
6.29162e-06
6.49836e-06
6.65209e-06
6.28428e-06
4.33299e-06
1.2587e-06
1.01227e-07
1.4874e-09
0.00015
0.00015
0.00015
0.00015
0.00015
0.00015
0.00015
0.00015
0.00015
1.49254e-08
1.4056e-08
5.04177e-08
1.5154e-07
3.11963e-07
4.8363e-07
6.52011e-07
8.06375e-07
9.43909e-07
1.0706e-06
1.19808e-06
1.33995e-06
1.50884e-06
1.71416e-06
1.9614e-06
2.25194e-06
2.583e-06
2.94793e-06
3.33668e-06
3.73689e-06
4.13512e-06
4.5184e-06
4.87565e-06
5.19848e-06
5.48182e-06
5.72362e-06
5.92458e-06
6.08748e-06
6.21653e-06
6.31655e-06
6.39251e-06
6.44904e-06
6.48992e-06
6.51554e-06
8.49457e-05
5.30209e-05
3.69618e-05
2.77176e-05
2.18745e-05
1.79207e-05
1.51039e-05
1.30153e-05
1.14174e-05
1.0165e-05
9.16615e-06
8.3606e-06
7.70831e-06
7.18204e-06
6.76274e-06
6.43651e-06
6.19262e-06
6.02222e-06
5.91718e-06
5.86981e-06
5.87293e-06
5.92028e-06
6.00737e-06
6.13259e-06
6.29774e-06
6.50169e-06
6.69351e-06
6.57142e-06
5.27549e-06
2.52291e-06
5.62142e-07
4.01361e-08
0.00015
0.00015
0.00015
0.00015
0.00015
0.00015
0.00015
0.00015
9.06747e-07
1.74445e-08
5.36291e-08
1.94467e-07
4.04635e-07
6.54097e-07
9.09527e-07
1.14178e-06
1.33323e-06
1.47874e-06
1.5894e-06
1.68552e-06
1.78996e-06
1.92283e-06
2.09761e-06
2.32104e-06
2.59349e-06
2.90999e-06
3.26129e-06
3.63524e-06
4.0179e-06
4.3953e-06
4.75477e-06
5.08617e-06
5.38257e-06
5.63993e-06
5.8573e-06
6.03626e-06
6.18012e-06
6.29323e-06
6.38032e-06
6.44609e-06
6.49479e-06
6.52981e-06
6.55146e-06
8.49467e-05
5.30323e-05
3.69917e-05
2.77676e-05
2.19427e-05
1.80038e-05
1.51981e-05
1.3117e-05
1.15232e-05
1.02721e-05
9.27212e-06
8.46382e-06
7.8075e-06
7.27623e-06
6.85117e-06
6.5186e-06
6.26786e-06
6.09047e-06
5.97841e-06
5.92387e-06
5.91937e-06
5.95839e-06
6.03592e-06
6.14982e-06
6.3014e-06
6.49226e-06
6.69765e-06
6.74386e-06
6.03633e-06
3.95313e-06
1.63019e-06
3.66214e-07
4.01531e-08
2.1764e-09
0.00015
0.00015
0.00015
0.00015
0.00015
1.45771e-09
1.84194e-08
8.58991e-08
2.73282e-07
5.62956e-07
9.30371e-07
1.32875e-06
1.70937e-06
2.02483e-06
2.25055e-06
2.38357e-06
2.44634e-06
2.47462e-06
2.5057e-06
2.56991e-06
2.68615e-06
2.86266e-06
3.09807e-06
3.38434e-06
3.70877e-06
4.0561e-06
4.41047e-06
4.75716e-06
5.08399e-06
5.38194e-06
5.64468e-06
5.86966e-06
6.05724e-06
6.20984e-06
6.33119e-06
6.42566e-06
6.49776e-06
6.55177e-06
6.59147e-06
6.61979e-06
6.63692e-06
8.49487e-05
5.3053e-05
3.7044e-05
2.78521e-05
2.20538e-05
1.81337e-05
1.53393e-05
1.32632e-05
1.16697e-05
1.04161e-05
9.41257e-06
8.60071e-06
7.94161e-06
7.40824e-06
6.98194e-06
6.64824e-06
6.39578e-06
6.21632e-06
6.10113e-06
6.0413e-06
6.02843e-06
6.05659e-06
6.11931e-06
6.21375e-06
6.34136e-06
6.50595e-06
6.69971e-06
6.83569e-06
6.5607e-06
5.26473e-06
3.15185e-06
1.37817e-06
4.21031e-07
1.05851e-07
1.64092e-08
2.59657e-09
9.63003e-10
2.13158e-09
1.00177e-08
4.4117e-08
1.68913e-07
4.40028e-07
8.67327e-07
1.43102e-06
2.08082e-06
2.72352e-06
3.27702e-06
3.67651e-06
3.89325e-06
3.94467e-06
3.88056e-06
3.76383e-06
3.65323e-06
3.59218e-06
3.60494e-06
3.69883e-06
3.86865e-06
4.10109e-06
4.37843e-06
4.68148e-06
4.99212e-06
5.29536e-06
5.57843e-06
5.83211e-06
6.05227e-06
6.23794e-06
6.3905e-06
6.51291e-06
6.609e-06
6.68292e-06
6.73872e-06
6.7801e-06
6.81022e-06
6.83148e-06
6.84382e-06
8.49527e-05
5.30933e-05
3.71391e-05
2.79953e-05
2.22287e-05
1.8324e-05
1.55326e-05
1.34527e-05
1.18536e-05
1.05963e-05
9.5933e-06
8.7875e-06
8.14006e-06
7.62332e-06
7.21606e-06
6.9015e-06
6.66697e-06
6.50362e-06
6.40067e-06
6.34726e-06
6.33231e-06
6.34762e-06
6.38813e-06
6.4517e-06
6.54074e-06
6.66147e-06
6.8167e-06
6.97158e-06
6.94536e-06
6.31103e-06
4.8186e-06
3.01821e-06
1.59461e-06
7.705e-07
3.2504e-07
1.27408e-07
6.28672e-08
7.0144e-08
1.63954e-07
3.97619e-07
8.45057e-07
1.55327e-06
2.50612e-06
3.62056e-06
4.76082e-06
5.74912e-06
6.46273e-06
6.83707e-06
6.87254e-06
6.64509e-06
6.26489e-06
5.84202e-06
5.46363e-06
5.18409e-06
5.02647e-06
4.99004e-06
5.05908e-06
5.21017e-06
5.41782e-06
5.65787e-06
5.90997e-06
6.15406e-06
6.37823e-06
6.57621e-06
6.74537e-06
6.88576e-06
6.99932e-06
7.08905e-06
7.15847e-06
7.21114e-06
7.25039e-06
7.27914e-06
7.29982e-06
7.31421e-06
7.32204e-06
8.49612e-05
5.31739e-05
3.7309e-05
2.82206e-05
2.24722e-05
1.8563e-05
1.57595e-05
1.3671e-05
1.20745e-05
1.08345e-05
9.86263e-06
9.10162e-06
8.51117e-06
8.0598e-06
7.72044e-06
7.4722e-06
7.29967e-06
7.18964e-06
7.12689e-06
7.09759e-06
7.09006e-06
7.09536e-06
7.10963e-06
7.13251e-06
7.16912e-06
7.22924e-06
7.32332e-06
7.44535e-06
7.51734e-06
7.30054e-06
6.48135e-06
5.10925e-06
3.63948e-06
2.4733e-06
1.65425e-06
1.15491e-06
9.16696e-07
9.34199e-07
1.32539e-06
2.16641e-06
3.51178e-06
5.31275e-06
7.38948e-06
9.4644e-06
1.12273e-05
1.24284e-05
1.29491e-05
1.281e-05
1.21474e-05
1.11654e-05
1.00778e-05
9.05611e-06
8.20753e-06
7.5785e-06
7.16943e-06
6.95286e-06
6.88887e-06
6.93564e-06
7.05936e-06
7.22159e-06
7.39385e-06
7.56162e-06
7.71502e-06
7.84962e-06
7.96315e-06
8.05599e-06
8.12992e-06
8.18745e-06
8.23129e-06
8.26408e-06
8.28818e-06
8.30561e-06
8.318e-06
8.32648e-06
8.33058e-06
8.49813e-05
5.3332e-05
3.75729e-05
2.85025e-05
2.27318e-05
1.88015e-05
1.59988e-05
1.39392e-05
1.24054e-05
1.12623e-05
1.04123e-05
9.79256e-06
9.35468e-06
9.05942e-06
8.87359e-06
8.76945e-06
8.72826e-06
8.72571e-06
8.74306e-06
8.7658e-06
8.78381e-06
8.79149e-06
8.78802e-06
8.77773e-06
8.77035e-06
8.78044e-06
8.82506e-06
8.91489e-06
9.02714e-06
9.05101e-06
8.76798e-06
8.02331e-06
6.95447e-06
5.87688e-06
5.00494e-06
4.46672e-06
4.34285e-06
5.04008e-06
6.83557e-06
9.72612e-06
1.34698e-05
1.75766e-05
2.14201e-05
2.44071e-05
2.61116e-05
2.6375e-05
2.53274e-05
2.3309e-05
2.07473e-05
1.80656e-05
1.56036e-05
1.35623e-05
1.20091e-05
1.09165e-05
1.02082e-05
9.79469e-06
9.59481e-06
9.53824e-06
9.56087e-06
9.62539e-06
9.707e-06
9.79369e-06
9.87601e-06
9.94901e-06
1.00107e-05
1.00609e-05
1.01007e-05
1.01314e-05
1.01546e-05
1.01718e-05
1.01844e-05
1.01935e-05
1.02e-05
1.02045e-05
1.02063e-05
8.50294e-05
5.35901e-05
3.78395e-05
2.871e-05
2.29214e-05
1.90399e-05
1.63599e-05
1.44726e-05
1.31497e-05
1.2248e-05
1.16676e-05
1.13332e-05
1.11829e-05
1.11644e-05
1.12346e-05
1.1361e-05
1.15153e-05
1.16676e-05
1.18058e-05
1.1924e-05
1.20212e-05
1.21008e-05
1.21703e-05
1.22416e-05
1.23321e-05
1.24648e-05
1.2668e-05
1.29706e-05
1.33898e-05
1.39005e-05
1.44022e-05
1.47498e-05
1.49044e-05
1.50397e-05
1.54433e-05
1.64742e-05
1.87136e-05
2.37394e-05
3.09018e-05
3.93256e-05
4.76315e-05
5.43853e-05
5.84725e-05
5.935e-05
5.70589e-05
5.21908e-05
4.57041e-05
3.86529e-05
3.19549e-05
2.62421e-05
2.17794e-05
1.8536e-05
1.63142e-05
1.48651e-05
1.39631e-05
1.34393e-05
1.3148e-05
1.29968e-05
1.29342e-05
1.29189e-05
1.29329e-05
1.29604e-05
1.29921e-05
1.30232e-05
1.30512e-05
1.30751e-05
1.30947e-05
1.31104e-05
1.31226e-05
1.3132e-05
1.31392e-05
1.31447e-05
1.3149e-05
1.31523e-05
1.31542e-05
8.51359e-05
5.37132e-05
3.78154e-05
2.87368e-05
2.31989e-05
1.9598e-05
1.72275e-05
1.56929e-05
1.47561e-05
1.42615e-05
1.40939e-05
1.41587e-05
1.43763e-05
1.46835e-05
1.50351e-05
1.54024e-05
1.57552e-05
1.60912e-05
1.64197e-05
1.67558e-05
1.71193e-05
1.75352e-05
1.80347e-05
1.86585e-05
1.94603e-05
2.05114e-05
2.19061e-05
2.37655e-05
2.62367e-05
2.94786e-05
3.36301e-05
3.87826e-05
4.50209e-05
5.25628e-05
6.19081e-05
7.37781e-05
9.05422e-05
0.000109539
0.000128166
0.000142867
0.000150625
0.000149848
0.000140671
0.000124903
0.000105152
8.45677e-05
6.57722e-05
5.03507e-05
3.87493e-05
3.06162e-05
2.51991e-05
2.17306e-05
1.9573e-05
1.82484e-05
1.74548e-05
1.69912e-05
1.67367e-05
1.66038e-05
1.6547e-05
1.65328e-05
1.65426e-05
1.65657e-05
1.65948e-05
1.6625e-05
1.66536e-05
1.66792e-05
1.67012e-05
1.67198e-05
1.67351e-05
1.67476e-05
1.67577e-05
1.67659e-05
1.67727e-05
1.67785e-05
1.67833e-05
8.55202e-05
5.31667e-05
3.76495e-05
2.91151e-05
2.39332e-05
2.07057e-05
1.87078e-05
1.75418e-05
1.69732e-05
1.68371e-05
1.70006e-05
1.73541e-05
1.7813e-05
1.83198e-05
1.88433e-05
1.93744e-05
1.99196e-05
2.05052e-05
2.11702e-05
2.19651e-05
2.29554e-05
2.42274e-05
2.58989e-05
2.81355e-05
3.11746e-05
3.53586e-05
4.11813e-05
4.93444e-05
6.08116e-05
7.68246e-05
9.88069e-05
0.000128084
0.000165459
0.00021098
0.000264571
0.000322305
0.000372904
0.000407933
0.000419536
0.000404068
0.000363622
0.000305634
0.000240998
0.000178582
0.000125696
8.70626e-05
6.11333e-05
4.45197e-05
3.41864e-05
2.77744e-05
2.38611e-05
2.15099e-05
2.01324e-05
1.93583e-05
1.89579e-05
1.8791e-05
1.8768e-05
1.88245e-05
1.89151e-05
1.9007e-05
1.9094e-05
1.91805e-05
1.92624e-05
1.9337e-05
1.94027e-05
1.94588e-05
1.95059e-05
1.95447e-05
1.95763e-05
1.96017e-05
1.96219e-05
1.96381e-05
1.96514e-05
1.96626e-05
1.96724e-05
)
;

boundaryField
{
    ibCylinder
    {
        type            immersedBoundaryKqRWallFunction;
        patchType       immersedBoundary;
        setDeadValue    true;
        deadValue       0.00015;
        value           nonuniform List<scalar> 0();
    }
    in
    {
        type            fixedValue;
        value           uniform 0.00015;
    }
    out
    {
        type            inletOutlet;
        inletValue      uniform 0.00015;
        value           nonuniform List<scalar> 
25
(
1.96287e-05
1.6765e-05
1.31685e-05
1.02434e-05
8.37472e-06
7.36171e-06
6.87471e-06
6.65955e-06
6.56788e-06
6.52736e-06
6.50734e-06
6.49663e-06
6.49191e-06
6.49262e-06
6.49944e-06
6.51554e-06
6.55146e-06
6.63692e-06
6.84382e-06
7.32204e-06
8.33058e-06
1.02063e-05
1.31542e-05
1.67833e-05
1.96724e-05
)
;
    }
    top
    {
        type            zeroGradient;
    }
    bottom
    {
        type            zeroGradient;
    }
    frontAndBack
    {
        type            empty;
    }
}


// ************************************************************************* //
