/*--------------------------------*- C++ -*----------------------------------*\
| =========                 |                                                 |
| \\      /  F ield         | OpenFOAM: The Open Source CFD Toolbox           |
|  \\    /   O peration     | Version:  2206                                  |
|   \\  /    A nd           | Website:  www.openfoam.com                      |
|    \\/     M anipulation  |                                                 |
\*---------------------------------------------------------------------------*/
FoamFile
{
    version     2.0;
    format      ascii;
    arch        "LSB;label=32;scalar=64";
    class       volScalarField;
    location    "0.8";
    object      nut;
}
// * * * * * * * * * * * * * * * * * * * * * * * * * * * * * * * * * * * * * //

dimensions      [0 2 -1 0 0 0 0];

internalField   nonuniform List<scalar> 
1875
(
2.91406e-07
2.88046e-07
2.94029e-07
3.06451e-07
3.22924e-07
3.43503e-07
3.68685e-07
3.99331e-07
4.36194e-07
4.79238e-07
5.27305e-07
5.783e-07
6.29719e-07
6.79274e-07
7.25323e-07
7.67014e-07
8.04399e-07
8.38401e-07
8.70506e-07
9.02567e-07
9.36743e-07
9.75537e-07
1.02192e-06
1.07956e-06
1.15305e-06
1.24819e-06
1.37215e-06
1.53331e-06
1.7404e-06
2.00036e-06
2.31453e-06
2.67518e-06
3.06657e-06
3.47347e-06
3.89304e-06
4.30587e-06
4.65008e-06
4.88336e-06
4.96629e-06
4.87294e-06
4.59897e-06
4.16703e-06
3.62942e-06
3.04208e-06
2.46983e-06
1.98193e-06
1.6022e-06
1.32534e-06
1.13466e-06
1.00824e-06
9.28964e-07
8.82271e-07
8.56997e-07
8.4504e-07
8.41035e-07
8.41625e-07
8.44736e-07
8.48916e-07
8.53196e-07
8.56925e-07
8.60103e-07
8.62958e-07
8.65473e-07
8.67654e-07
8.69505e-07
8.71049e-07
8.72319e-07
8.73352e-07
8.74185e-07
8.7485e-07
8.7538e-07
8.75805e-07
8.76157e-07
8.76473e-07
8.76765e-07
2.90329e-07
2.83175e-07
2.79864e-07
2.80743e-07
2.86137e-07
2.95381e-07
3.08862e-07
3.27058e-07
3.5047e-07
3.79392e-07
4.1359e-07
4.52142e-07
4.93509e-07
5.35846e-07
5.77381e-07
6.1668e-07
6.52247e-07
6.83813e-07
7.11703e-07
7.36628e-07
7.59565e-07
7.81693e-07
8.04368e-07
8.29156e-07
8.57889e-07
8.92721e-07
9.36106e-07
9.90543e-07
1.05767e-06
1.13599e-06
1.2175e-06
1.28839e-06
1.34187e-06
1.3918e-06
1.46367e-06
1.58957e-06
1.80981e-06
2.05401e-06
2.28589e-06
2.46358e-06
2.55716e-06
2.55351e-06
2.45564e-06
2.28001e-06
2.04969e-06
1.79414e-06
1.54154e-06
1.31475e-06
1.12811e-06
9.87044e-07
8.88838e-07
8.26204e-07
7.9005e-07
7.71507e-07
7.63946e-07
7.62429e-07
7.6425e-07
7.67418e-07
7.71017e-07
7.7445e-07
7.77489e-07
7.80082e-07
7.82242e-07
7.84004e-07
7.85418e-07
7.86541e-07
7.87424e-07
7.88116e-07
7.88657e-07
7.89079e-07
7.89409e-07
7.89673e-07
7.89899e-07
7.90139e-07
7.90556e-07
2.9004e-07
2.8206e-07
2.76488e-07
2.73083e-07
2.71918e-07
2.7312e-07
2.76989e-07
2.83689e-07
2.93608e-07
3.07125e-07
3.24457e-07
3.45558e-07
3.70022e-07
3.97089e-07
4.25752e-07
4.54978e-07
4.83616e-07
5.10307e-07
5.34375e-07
5.55465e-07
5.7352e-07
5.88742e-07
6.01545e-07
6.1252e-07
6.22399e-07
6.31969e-07
6.41827e-07
6.51646e-07
6.5798e-07
6.49525e-07
6.05124e-07
5.14863e-07
4.09035e-07
3.28412e-07
2.80063e-07
2.68405e-07
2.96577e-07
3.78168e-07
5.01422e-07
6.54373e-07
8.1577e-07
9.61516e-07
1.07126e-06
1.13304e-06
1.14391e-06
1.10953e-06
1.04164e-06
9.54611e-07
8.62541e-07
7.77478e-07
7.07607e-07
6.56721e-07
6.24682e-07
6.08593e-07
6.04355e-07
6.08186e-07
6.15968e-07
6.25041e-07
6.34134e-07
6.42312e-07
6.49337e-07
6.55088e-07
6.59626e-07
6.63112e-07
6.65733e-07
6.6767e-07
6.6908e-07
6.70095e-07
6.70819e-07
6.71334e-07
6.717e-07
6.71965e-07
6.72167e-07
6.72361e-07
6.72678e-07
2.89951e-07
2.81693e-07
2.75503e-07
2.7088e-07
2.6762e-07
2.65665e-07
2.6507e-07
2.65967e-07
2.68611e-07
2.73278e-07
2.80118e-07
2.89317e-07
3.00928e-07
3.14824e-07
3.30695e-07
3.48093e-07
3.66652e-07
3.85526e-07
4.03942e-07
4.21191e-07
4.36712e-07
4.50136e-07
4.61314e-07
4.70315e-07
4.77378e-07
4.82745e-07
4.86163e-07
4.85191e-07
4.70164e-07
4.16994e-07
3.07153e-07
1.8385e-07
1.01995e-07
6.18234e-08
4.09774e-08
3.2351e-08
3.19028e-08
4.01502e-08
6.05273e-08
9.71637e-08
1.52383e-07
2.2449e-07
3.06847e-07
3.89062e-07
4.59713e-07
5.09873e-07
5.35677e-07
5.38648e-07
5.24138e-07
4.99492e-07
4.72209e-07
4.484e-07
4.32035e-07
4.24817e-07
4.26518e-07
4.35603e-07
4.49961e-07
4.67182e-07
4.84638e-07
5.0095e-07
5.15284e-07
5.27379e-07
5.37197e-07
5.44911e-07
5.50807e-07
5.55208e-07
5.58426e-07
5.60736e-07
5.62369e-07
5.63506e-07
5.64289e-07
5.64824e-07
5.65193e-07
5.65469e-07
5.65765e-07
2.89925e-07
2.81554e-07
2.75133e-07
2.70121e-07
2.66191e-07
2.63166e-07
2.60978e-07
2.59639e-07
2.59227e-07
2.5987e-07
2.61707e-07
2.64924e-07
2.69693e-07
2.76113e-07
2.84167e-07
2.93781e-07
3.04889e-07
3.17324e-07
3.30662e-07
3.44386e-07
3.57951e-07
3.70846e-07
3.82706e-07
3.93276e-07
4.02418e-07
4.09853e-07
4.14171e-07
4.09103e-07
3.73325e-07
2.72908e-07
1.39809e-07
5.63742e-08
2.2362e-08
1.05392e-08
5.11902e-09
3.04539e-09
2.57829e-09
3.07122e-09
5.32276e-09
1.09121e-08
2.22204e-08
4.17515e-08
7.09915e-08
1.09184e-07
1.52822e-07
1.96331e-07
2.33905e-07
2.61316e-07
2.77041e-07
2.82477e-07
2.81095e-07
2.77049e-07
2.74108e-07
2.75074e-07
2.81524e-07
2.93814e-07
3.11257e-07
3.32449e-07
3.55836e-07
3.79301e-07
4.0115e-07
4.20536e-07
4.37003e-07
4.505e-07
4.61204e-07
4.69458e-07
4.75668e-07
4.8024e-07
4.83541e-07
4.85884e-07
4.8752e-07
4.88647e-07
4.89416e-07
4.89946e-07
4.90346e-07
2.89917e-07
2.81502e-07
2.74974e-07
2.69792e-07
2.65612e-07
2.62213e-07
2.59467e-07
2.57315e-07
2.55754e-07
2.5484e-07
2.54673e-07
2.55391e-07
2.57154e-07
2.60129e-07
2.64451e-07
2.70216e-07
2.77498e-07
2.8639e-07
2.96759e-07
3.08334e-07
3.20709e-07
3.33453e-07
3.46147e-07
3.58385e-07
3.69726e-07
3.79253e-07
3.83594e-07
3.69117e-07
2.97386e-07
1.57146e-07
5.23734e-08
1.43659e-08
3.79685e-09
1.20965e-09
2.99559e-10
8.18024e-11
4.06877e-11
6.08206e-11
2.30149e-10
9.14454e-10
2.9629e-09
7.63363e-09
1.65261e-08
3.07921e-08
5.05486e-08
7.41634e-08
9.89389e-08
1.21695e-07
1.39843e-07
1.52389e-07
1.60014e-07
1.64589e-07
1.68501e-07
1.74046e-07
1.83016e-07
1.96466e-07
2.14638e-07
2.36996e-07
2.62391e-07
2.89313e-07
3.16187e-07
3.41378e-07
3.63855e-07
3.83096e-07
3.98974e-07
4.11662e-07
4.21515e-07
4.28978e-07
4.34506e-07
4.38518e-07
4.4138e-07
4.43386e-07
4.44773e-07
4.45721e-07
4.46349e-07
2.89914e-07
2.81481e-07
2.74904e-07
2.69636e-07
2.65333e-07
2.61769e-07
2.58803e-07
2.56349e-07
2.54374e-07
2.52897e-07
2.51988e-07
2.51762e-07
2.52377e-07
2.54009e-07
2.56857e-07
2.61095e-07
2.66862e-07
2.743e-07
2.83403e-07
2.9403e-07
3.05923e-07
3.18767e-07
3.32109e-07
3.45444e-07
3.5806e-07
3.68217e-07
3.69249e-07
3.35042e-07
2.16154e-07
7.45262e-08
1.60295e-08
2.73198e-09
3.42531e-10
4.72146e-11
2.66218e-12
1.61039e-13
4.00669e-14
1.60457e-13
2.20486e-12
3.04874e-11
3.04992e-10
1.49056e-09
4.45508e-09
1.01584e-08
1.91633e-08
3.11948e-08
4.52792e-08
5.97978e-08
7.30639e-08
8.39682e-08
9.23211e-08
9.88544e-08
1.04932e-07
1.12142e-07
1.21948e-07
1.35444e-07
1.53204e-07
1.75197e-07
2.00789e-07
2.28831e-07
2.57873e-07
2.86439e-07
3.13148e-07
3.36957e-07
3.57357e-07
3.74218e-07
3.87717e-07
3.98221e-07
4.06193e-07
4.12107e-07
4.16408e-07
4.19479e-07
4.21634e-07
4.23119e-07
4.24072e-07
2.89913e-07
2.81472e-07
2.74871e-07
2.69559e-07
2.6519e-07
2.6154e-07
2.58465e-07
2.55877e-07
2.53737e-07
2.52055e-07
2.50893e-07
2.5036e-07
2.50613e-07
2.51841e-07
2.54254e-07
2.58055e-07
2.63418e-07
2.70481e-07
2.79276e-07
2.8972e-07
3.01609e-07
3.14623e-07
3.28334e-07
3.42169e-07
3.55129e-07
3.6433e-07
3.57774e-07
2.92077e-07
1.35843e-07
2.90663e-08
3.79699e-09
2.65761e-10
7.14215e-12
2.9828e-14
1e-06
1e-06
1e-06
1e-06
1e-06
5.85388e-14
5.73028e-12
2.40681e-10
1.15329e-09
3.65604e-09
8.21882e-09
1.48068e-08
2.30157e-08
3.20261e-08
4.09115e-08
4.89216e-08
5.58276e-08
6.19927e-08
6.82619e-08
7.57401e-08
8.55423e-08
9.86175e-08
1.1559e-07
1.36658e-07
1.61524e-07
1.89394e-07
2.19075e-07
2.49157e-07
2.78237e-07
3.05128e-07
3.2893e-07
3.49207e-07
3.65893e-07
3.79204e-07
3.89532e-07
3.97348e-07
4.03133e-07
4.0733e-07
4.10318e-07
4.124e-07
4.13733e-07
2.89912e-07
2.81467e-07
2.74854e-07
2.69519e-07
2.65115e-07
2.61417e-07
2.58283e-07
2.55625e-07
2.53407e-07
2.51644e-07
2.50397e-07
2.49783e-07
2.49961e-07
2.51129e-07
2.53505e-07
2.57298e-07
2.62688e-07
2.69797e-07
2.78658e-07
2.89189e-07
3.01192e-07
3.14349e-07
3.28211e-07
3.42121e-07
3.54752e-07
3.61616e-07
3.42674e-07
2.37169e-07
7.29267e-08
9.15878e-09
5.48824e-10
6.5718e-12
1e-06
1e-06
1e-06
1e-06
1e-06
1e-06
1e-06
1e-06
1.02851e-11
6.10203e-12
1.46599e-10
1.11207e-09
3.56488e-09
7.53464e-09
1.26727e-08
1.84956e-08
2.44983e-08
3.02769e-08
3.57441e-08
4.11754e-08
4.71684e-08
5.45294e-08
6.41085e-08
7.6681e-08
9.28307e-08
1.12848e-07
1.36642e-07
1.63698e-07
1.93089e-07
2.23584e-07
2.5382e-07
2.82507e-07
3.08617e-07
3.31439e-07
3.50673e-07
3.66354e-07
3.7876e-07
3.88315e-07
3.95499e-07
4.00783e-07
4.04593e-07
4.07276e-07
4.09002e-07
2.89912e-07
2.81465e-07
2.74845e-07
2.69497e-07
2.65073e-07
2.61349e-07
2.58181e-07
2.55486e-07
2.5323e-07
2.5143e-07
2.50157e-07
2.49533e-07
2.49725e-07
2.50939e-07
2.53396e-07
2.57307e-07
2.62844e-07
2.70116e-07
2.79138e-07
2.89811e-07
3.01923e-07
3.15137e-07
3.28975e-07
3.42691e-07
3.54568e-07
3.57913e-07
3.21524e-07
1.76276e-07
3.35811e-08
2.10195e-09
3.76325e-11
1.12658e-14
1e-06
1e-06
1e-06
1e-06
1e-06
1e-06
1e-06
1e-06
1e-06
7.63696e-13
1.20033e-11
1.90327e-10
1.19549e-09
3.73469e-09
7.16898e-09
1.11427e-08
1.53739e-08
1.9709e-08
2.41864e-08
2.90681e-08
3.48177e-08
4.20408e-08
5.13955e-08
6.35154e-08
7.8927e-08
9.79616e-08
1.20663e-07
1.46715e-07
1.75416e-07
2.0572e-07
2.36363e-07
2.66048e-07
2.93624e-07
3.18238e-07
3.39391e-07
3.56949e-07
3.71069e-07
3.82105e-07
3.90511e-07
3.96768e-07
4.01326e-07
4.04565e-07
4.06664e-07
2.89912e-07
2.81463e-07
2.74839e-07
2.69484e-07
2.65049e-07
2.6131e-07
2.58125e-07
2.55409e-07
2.53133e-07
2.51318e-07
2.50039e-07
2.49424e-07
2.49648e-07
2.50923e-07
2.53471e-07
2.57504e-07
2.63186e-07
2.70612e-07
2.79778e-07
2.90565e-07
3.02738e-07
3.15939e-07
3.29658e-07
3.43058e-07
3.53976e-07
3.52854e-07
2.94257e-07
1.19223e-07
1.30631e-08
2.5923e-10
1.40604e-12
1e-06
1e-06
1e-06
1e-06
1e-06
1e-06
1e-06
1e-06
1e-06
1e-06
1e-06
3.81904e-13
3.28202e-11
3.44165e-10
1.54692e-09
3.79285e-09
6.73704e-09
9.8856e-09
1.3328e-08
1.71993e-08
2.17479e-08
2.7346e-08
3.44635e-08
4.36258e-08
5.53709e-08
7.01858e-08
8.84258e-08
1.10222e-07
1.35394e-07
1.634e-07
1.9334e-07
2.24048e-07
2.54249e-07
2.82739e-07
3.08552e-07
3.31063e-07
3.50005e-07
3.65429e-07
3.77621e-07
3.87003e-07
3.9405e-07
3.99227e-07
4.02933e-07
4.05347e-07
2.89912e-07
2.81463e-07
2.74837e-07
2.69478e-07
2.65037e-07
2.61291e-07
2.58096e-07
2.55371e-07
2.53085e-07
2.51264e-07
2.49985e-07
2.4938e-07
2.4963e-07
2.50949e-07
2.53563e-07
2.57681e-07
2.63463e-07
2.70992e-07
2.8025e-07
2.91102e-07
3.03297e-07
3.16455e-07
3.30043e-07
3.43148e-07
3.53155e-07
3.47149e-07
2.63432e-07
7.48056e-08
4.27556e-09
1.99887e-11
4.76815e-14
1e-06
1e-06
1e-06
1e-06
1e-06
1e-06
1e-06
1e-06
1e-06
1e-06
1e-06
3.3988e-13
1.93601e-11
1.14315e-10
6.45142e-10
1.94645e-09
3.96133e-09
6.56235e-09
9.48115e-09
1.29979e-08
1.73517e-08
2.28534e-08
2.98953e-08
3.89286e-08
5.04362e-08
6.48811e-08
8.26295e-08
1.03859e-07
1.28465e-07
1.55997e-07
1.85648e-07
2.16319e-07
2.46762e-07
2.75755e-07
3.02274e-07
3.25614e-07
3.45426e-07
3.61694e-07
3.74651e-07
3.84692e-07
3.92282e-07
3.97891e-07
4.01927e-07
4.04568e-07
2.89912e-07
2.81462e-07
2.74836e-07
2.69475e-07
2.65033e-07
2.61284e-07
2.58087e-07
2.55359e-07
2.53071e-07
2.51249e-07
2.49971e-07
2.49372e-07
2.49635e-07
2.50974e-07
2.53617e-07
2.57772e-07
2.63595e-07
2.71167e-07
2.8046e-07
2.91336e-07
3.03531e-07
3.16662e-07
3.30183e-07
3.43148e-07
3.52681e-07
3.43328e-07
2.39678e-07
4.95594e-08
1.51371e-09
2.92304e-12
3.12023e-15
1e-06
1e-06
1e-06
1e-06
1e-06
1e-06
1e-06
1e-06
1e-06
1e-06
1e-06
4.49351e-12
2.14e-11
6.40676e-11
3.92964e-10
1.31007e-09
2.88848e-09
5.15914e-09
7.88816e-09
1.12799e-08
1.55886e-08
2.10993e-08
2.81725e-08
3.72263e-08
4.87121e-08
6.30776e-08
8.06854e-08
1.01722e-07
1.26106e-07
1.53419e-07
1.82892e-07
2.13462e-07
2.43903e-07
2.73e-07
2.99718e-07
3.23328e-07
3.43452e-07
3.60041e-07
3.73307e-07
3.83626e-07
3.91455e-07
3.9726e-07
4.01452e-07
4.04202e-07
2.89912e-07
2.81463e-07
2.74837e-07
2.69478e-07
2.65037e-07
2.61291e-07
2.58096e-07
2.55371e-07
2.53087e-07
2.51267e-07
2.49991e-07
2.49393e-07
2.49652e-07
2.50986e-07
2.53618e-07
2.57758e-07
2.63563e-07
2.71113e-07
2.80386e-07
2.91244e-07
3.0343e-07
3.16567e-07
3.30121e-07
3.43203e-07
3.53367e-07
3.49199e-07
2.76039e-07
8.77531e-08
5.17002e-09
2.00448e-11
4.90479e-14
1e-06
1e-06
1e-06
1e-06
1e-06
1e-06
1e-06
1e-06
1e-06
1e-06
1e-06
3.13634e-13
1.39935e-11
1.08183e-10
6.0793e-10
1.82114e-09
3.71493e-09
6.20454e-09
9.06982e-09
1.26061e-08
1.70536e-08
2.27091e-08
2.99392e-08
3.91639e-08
5.08341e-08
6.53837e-08
8.31557e-08
1.04314e-07
1.28754e-07
1.56039e-07
1.85393e-07
2.15756e-07
2.45922e-07
2.74702e-07
3.01093e-07
3.24393e-07
3.44243e-07
3.60606e-07
3.73695e-07
3.83883e-07
3.9162e-07
3.97363e-07
4.01515e-07
4.04242e-07
2.89912e-07
2.81463e-07
2.74839e-07
2.69484e-07
2.65049e-07
2.6131e-07
2.58125e-07
2.5541e-07
2.53136e-07
2.51324e-07
2.50052e-07
2.49448e-07
2.49691e-07
2.50992e-07
2.53575e-07
2.5765e-07
2.63376e-07
2.70842e-07
2.80035e-07
2.90831e-07
3.02986e-07
3.16139e-07
3.29786e-07
3.43118e-07
3.54155e-07
3.54816e-07
3.07872e-07
1.44505e-07
1.72826e-08
2.58841e-10
1.37188e-12
1e-06
1e-06
1e-06
1e-06
1e-06
1e-06
1e-06
1e-06
1e-06
1e-06
1e-06
3.22315e-13
2.6357e-11
3.1264e-10
1.38888e-09
3.36731e-09
5.97693e-09
8.84233e-09
1.21227e-08
1.59937e-08
2.07116e-08
2.66191e-08
3.41296e-08
4.36984e-08
5.57933e-08
7.08386e-08
8.91427e-08
1.10812e-07
1.35669e-07
1.63207e-07
1.92589e-07
2.22729e-07
2.52431e-07
2.80552e-07
3.06162e-07
3.28636e-07
3.47683e-07
3.63316e-07
3.75777e-07
3.8545e-07
3.92781e-07
3.98216e-07
4.02142e-07
4.0472e-07
2.89912e-07
2.81465e-07
2.74845e-07
2.69497e-07
2.65073e-07
2.61349e-07
2.58182e-07
2.55487e-07
2.53233e-07
2.51439e-07
2.50175e-07
2.49567e-07
2.49785e-07
2.51036e-07
2.53541e-07
2.5751e-07
2.63108e-07
2.70434e-07
2.79493e-07
2.90175e-07
3.02256e-07
3.15396e-07
3.29122e-07
3.4272e-07
3.5462e-07
3.59168e-07
3.31257e-07
2.03831e-07
4.34675e-08
2.1031e-09
3.60193e-11
1.11558e-14
1e-06
1e-06
1e-06
1e-06
1e-06
1e-06
1e-06
1e-06
1e-06
7.47679e-13
1.06942e-11
1.66102e-10
1.05647e-09
3.22634e-09
6.09419e-09
9.42631e-09
1.30859e-08
1.70449e-08
2.14279e-08
2.65177e-08
3.27312e-08
4.0577e-08
5.05926e-08
6.32909e-08
7.90954e-08
9.82642e-08
1.20808e-07
1.46428e-07
1.74483e-07
2.04033e-07
2.33933e-07
2.62996e-07
2.90151e-07
3.14579e-07
3.35775e-07
3.53558e-07
3.68028e-07
3.79478e-07
3.88313e-07
3.94977e-07
3.99899e-07
4.03444e-07
4.05765e-07
2.89912e-07
2.81467e-07
2.74854e-07
2.69519e-07
2.65115e-07
2.61417e-07
2.58283e-07
2.55627e-07
2.53412e-07
2.51655e-07
2.50421e-07
2.49827e-07
2.50036e-07
2.5125e-07
2.53684e-07
2.57545e-07
2.63005e-07
2.70176e-07
2.79075e-07
2.89607e-07
3.01561e-07
3.14614e-07
3.28325e-07
3.42067e-07
3.5463e-07
3.62183e-07
3.48477e-07
2.59334e-07
8.8282e-08
9.219e-09
5.2289e-10
6.28036e-12
1e-06
1e-06
1e-06
1e-06
1e-06
1e-06
1e-06
1e-06
1.01641e-11
5.00496e-12
1.04201e-10
9.72131e-10
3.06413e-09
6.31409e-09
1.04519e-08
1.51574e-08
2.01382e-08
2.52018e-08
3.04037e-08
3.60543e-08
4.26763e-08
5.09212e-08
6.1452e-08
7.48625e-08
9.15889e-08
1.11826e-07
1.35454e-07
1.61999e-07
1.90638e-07
2.20289e-07
2.49743e-07
2.7784e-07
3.03626e-07
3.26417e-07
3.45873e-07
3.61964e-07
3.74893e-07
3.85016e-07
3.92758e-07
3.98554e-07
4.02807e-07
4.05856e-07
4.07843e-07
2.89913e-07
2.81472e-07
2.74871e-07
2.69559e-07
2.6519e-07
2.61541e-07
2.58466e-07
2.55879e-07
2.53743e-07
2.5207e-07
2.50923e-07
2.50415e-07
2.50705e-07
2.51984e-07
2.54461e-07
2.58334e-07
2.63768e-07
2.70886e-07
2.79706e-07
2.90129e-07
3.01937e-07
3.14808e-07
3.28325e-07
3.41943e-07
3.54757e-07
3.64289e-07
3.60715e-07
3.06928e-07
1.5529e-07
3.07803e-08
3.65603e-09
2.49907e-10
6.82768e-12
2.89001e-14
1e-06
1e-06
1e-06
1e-06
1e-06
5.34024e-14
4.88636e-12
1.29185e-10
9.66989e-10
3.13335e-09
6.8965e-09
1.21889e-08
1.86967e-08
2.58476e-08
3.30552e-08
3.98998e-08
4.63579e-08
5.28176e-08
5.99805e-08
6.87022e-08
7.98191e-08
9.403e-08
1.11774e-07
1.33152e-07
1.57862e-07
1.85203e-07
2.14141e-07
2.43454e-07
2.71912e-07
2.98447e-07
3.2222e-07
3.42765e-07
3.59953e-07
3.73915e-07
3.84961e-07
3.93492e-07
3.99942e-07
4.04723e-07
4.08204e-07
4.1068e-07
4.12285e-07
2.89914e-07
2.81481e-07
2.74904e-07
2.69636e-07
2.65333e-07
2.6177e-07
2.58804e-07
2.56353e-07
2.54383e-07
2.52917e-07
2.52028e-07
2.51834e-07
2.52493e-07
2.54182e-07
2.57097e-07
2.61401e-07
2.67226e-07
2.74694e-07
2.83784e-07
2.94341e-07
3.06098e-07
3.18742e-07
3.31835e-07
3.44904e-07
3.57312e-07
3.67567e-07
3.70168e-07
3.43154e-07
2.34185e-07
7.97576e-08
1.59779e-08
2.5792e-09
3.20756e-10
4.4967e-11
2.56039e-12
1.54927e-13
3.85285e-14
1.54898e-13
2.09382e-12
2.77417e-11
2.57212e-10
1.2685e-09
3.82736e-09
8.59828e-09
1.59416e-08
2.55637e-08
3.67075e-08
4.8208e-08
5.89419e-08
6.82654e-08
7.62068e-08
8.34231e-08
9.09749e-08
1.00045e-07
1.11699e-07
1.26718e-07
1.45485e-07
1.67912e-07
1.93431e-07
2.21063e-07
2.49573e-07
2.77692e-07
3.04204e-07
3.28143e-07
3.48978e-07
3.6652e-07
3.80856e-07
3.92263e-07
4.01125e-07
4.07863e-07
4.12888e-07
4.16569e-07
4.19221e-07
4.21093e-07
4.22297e-07
2.89917e-07
2.81502e-07
2.74974e-07
2.69792e-07
2.65612e-07
2.62214e-07
2.59469e-07
2.5732e-07
2.55769e-07
2.54872e-07
2.54734e-07
2.55494e-07
2.57312e-07
2.60351e-07
2.64738e-07
2.70554e-07
2.77858e-07
2.86724e-07
2.97009e-07
3.08431e-07
3.20584e-07
3.33047e-07
3.45427e-07
3.57352e-07
3.68439e-07
3.77923e-07
3.83026e-07
3.72345e-07
3.09403e-07
1.66048e-07
5.2982e-08
1.38046e-08
3.53349e-09
1.10223e-09
2.81589e-10
7.77686e-11
3.8819e-11
5.77439e-11
2.15042e-10
8.31103e-10
2.61559e-09
6.68466e-09
1.42375e-08
2.60872e-08
4.21941e-08
6.11648e-08
8.09287e-08
9.91763e-08
1.14154e-07
1.25346e-07
1.33443e-07
1.39929e-07
1.46584e-07
1.55089e-07
1.66735e-07
1.82261e-07
2.01789e-07
2.2484e-07
2.50454e-07
2.77369e-07
3.04255e-07
3.29673e-07
3.52658e-07
3.72677e-07
3.89541e-07
4.0333e-07
4.14311e-07
4.2285e-07
4.29353e-07
4.34211e-07
4.37778e-07
4.40357e-07
4.42193e-07
4.43478e-07
4.44305e-07
2.89925e-07
2.81554e-07
2.75133e-07
2.70121e-07
2.66191e-07
2.63167e-07
2.60981e-07
2.5965e-07
2.59254e-07
2.59925e-07
2.61806e-07
2.65084e-07
2.69924e-07
2.76413e-07
2.84515e-07
2.94139e-07
3.05196e-07
3.17509e-07
3.30647e-07
3.44098e-07
3.57331e-07
3.6986e-07
3.81348e-07
3.91577e-07
4.0045e-07
4.07775e-07
4.12434e-07
4.09204e-07
3.78749e-07
2.81608e-07
1.41823e-07
5.46654e-08
2.08209e-08
9.50523e-09
4.62616e-09
2.76041e-09
2.35246e-09
2.84608e-09
4.93239e-09
9.96487e-09
1.99003e-08
3.67207e-08
6.14447e-08
9.32259e-08
1.29059e-07
1.64465e-07
1.95013e-07
2.17686e-07
2.31622e-07
2.38167e-07
2.40147e-07
2.4076e-07
2.42828e-07
2.48411e-07
2.58639e-07
2.73717e-07
2.93051e-07
3.15481e-07
3.39757e-07
3.6405e-07
3.86848e-07
4.07358e-07
4.25114e-07
4.39999e-07
4.5211e-07
4.61711e-07
4.69151e-07
4.748e-07
4.79013e-07
4.82102e-07
4.84334e-07
4.85925e-07
4.87046e-07
4.87828e-07
4.88349e-07
2.89951e-07
2.81693e-07
2.75503e-07
2.7088e-07
2.6762e-07
2.65666e-07
2.65076e-07
2.65987e-07
2.6866e-07
2.73375e-07
2.80284e-07
2.89566e-07
3.01255e-07
3.152e-07
3.31064e-07
3.48376e-07
3.66753e-07
3.85362e-07
4.03435e-07
4.20292e-07
4.354e-07
4.48422e-07
4.59234e-07
4.67926e-07
4.74754e-07
4.80002e-07
4.83547e-07
4.83399e-07
4.70959e-07
4.21481e-07
3.0964e-07
1.79845e-07
9.56118e-08
5.59849e-08
3.68558e-08
2.91325e-08
2.88104e-08
3.64606e-08
5.47877e-08
8.71772e-08
1.3537e-07
1.97609e-07
2.6797e-07
3.37526e-07
3.96775e-07
4.38641e-07
4.6046e-07
4.64021e-07
4.54066e-07
4.36717e-07
4.18014e-07
4.02762e-07
3.94003e-07
3.92973e-07
3.99388e-07
4.11941e-07
4.2889e-07
4.48203e-07
4.67535e-07
4.85662e-07
5.01811e-07
5.15703e-07
5.27253e-07
5.3658e-07
5.43925e-07
5.49586e-07
5.53866e-07
5.57046e-07
5.59374e-07
5.61054e-07
5.62252e-07
5.63099e-07
5.63695e-07
5.64125e-07
5.64461e-07
2.9004e-07
2.8206e-07
2.76488e-07
2.73083e-07
2.71919e-07
2.73123e-07
2.77002e-07
2.83727e-07
2.93694e-07
3.07285e-07
3.24705e-07
3.45886e-07
3.70388e-07
3.97415e-07
4.25939e-07
4.54921e-07
4.8323e-07
5.09543e-07
5.33214e-07
5.53921e-07
5.71633e-07
5.86563e-07
5.99127e-07
6.09909e-07
6.19634e-07
6.2909e-07
6.38922e-07
6.48968e-07
6.56219e-07
6.49558e-07
6.05164e-07
5.08348e-07
3.92492e-07
3.05863e-07
2.57172e-07
2.45206e-07
2.70659e-07
3.46182e-07
4.58477e-07
5.96585e-07
7.4111e-07
8.70356e-07
9.66336e-07
1.01895e-06
1.02641e-06
9.94684e-07
9.34758e-07
8.59484e-07
7.81099e-07
7.09858e-07
6.52579e-07
6.12272e-07
5.88582e-07
5.78831e-07
5.79376e-07
5.86941e-07
5.97787e-07
6.09511e-07
6.20988e-07
6.31339e-07
6.40338e-07
6.47852e-07
6.53927e-07
6.58721e-07
6.62429e-07
6.65246e-07
6.67353e-07
6.6891e-07
6.70046e-07
6.70869e-07
6.71463e-07
6.71893e-07
6.72215e-07
6.72486e-07
6.72791e-07
2.90329e-07
2.83175e-07
2.79864e-07
2.80743e-07
2.86139e-07
2.9539e-07
3.0889e-07
3.27129e-07
3.50606e-07
3.79601e-07
4.13851e-07
4.52392e-07
4.93656e-07
5.35793e-07
5.77048e-07
6.16032e-07
6.51296e-07
6.82603e-07
7.10303e-07
7.35112e-07
7.58e-07
7.80128e-07
8.02831e-07
8.27656e-07
8.56423e-07
8.91281e-07
9.34702e-07
9.8924e-07
1.05667e-06
1.13559e-06
1.21712e-06
1.28418e-06
1.32636e-06
1.3601e-06
1.41807e-06
1.53242e-06
1.74414e-06
1.9782e-06
2.19724e-06
2.36108e-06
2.44203e-06
2.42902e-06
2.32677e-06
2.15253e-06
1.92957e-06
1.68619e-06
1.44841e-06
1.23709e-06
1.06504e-06
9.3668e-07
8.4889e-07
7.94427e-07
7.64557e-07
7.50903e-07
7.47244e-07
7.48916e-07
7.53431e-07
7.58911e-07
7.64494e-07
7.69618e-07
7.74088e-07
7.77872e-07
7.81004e-07
7.83541e-07
7.85562e-07
7.87149e-07
7.88384e-07
7.89336e-07
7.90066e-07
7.90625e-07
7.91055e-07
7.91395e-07
7.91688e-07
7.91995e-07
7.92431e-07
2.91406e-07
2.88046e-07
2.94029e-07
3.06454e-07
3.22936e-07
3.43538e-07
3.68764e-07
3.99469e-07
4.36381e-07
4.79423e-07
5.27399e-07
5.782e-07
6.29343e-07
6.78587e-07
7.24351e-07
7.65836e-07
8.03123e-07
8.37141e-07
8.69365e-07
9.01628e-07
9.36065e-07
9.7516e-07
1.02188e-06
1.0799e-06
1.15386e-06
1.24966e-06
1.37461e-06
1.5374e-06
1.74722e-06
2.01164e-06
2.33252e-06
2.7017e-06
3.10184e-06
3.51661e-06
3.94402e-06
4.36441e-06
4.71257e-06
4.94396e-06
5.01741e-06
4.90727e-06
4.61111e-06
4.15497e-06
3.59533e-06
2.99201e-06
2.41199e-06
1.9236e-06
1.54847e-06
1.27879e-06
1.09588e-06
9.76698e-07
9.03633e-07
8.62056e-07
8.4096e-07
8.32433e-07
8.31277e-07
8.34252e-07
8.39366e-07
8.4522e-07
8.50888e-07
8.55756e-07
8.59854e-07
8.63439e-07
8.66522e-07
8.69139e-07
8.71318e-07
8.73105e-07
8.74553e-07
8.75715e-07
8.76639e-07
8.77371e-07
8.77953e-07
8.78432e-07
8.78864e-07
8.7934e-07
8.80012e-07
)
;

boundaryField
{
    ibCylinder
    {
        type            immersedBoundaryNutWallFunction;
        patchType       immersedBoundary;
        blending        stepwise;
        value           nonuniform List<scalar> 0();
    }
    in
    {
        type            zeroGradient;
    }
    out
    {
        type            zeroGradient;
    }
    top
    {
        type            zeroGradient;
    }
    bottom
    {
        type            zeroGradient;
    }
    frontAndBack
    {
        type            empty;
    }
}


// ************************************************************************* //
