/*--------------------------------*- C++ -*----------------------------------*\
| =========                 |                                                 |
| \\      /  F ield         | OpenFOAM: The Open Source CFD Toolbox           |
|  \\    /   O peration     | Version:  2206                                  |
|   \\  /    A nd           | Website:  www.openfoam.com                      |
|    \\/     M anipulation  |                                                 |
\*---------------------------------------------------------------------------*/
FoamFile
{
    version     2.0;
    format      ascii;
    arch        "LSB;label=32;scalar=64";
    class       volScalarField;
    location    "0.8";
    object      omega;
}
// * * * * * * * * * * * * * * * * * * * * * * * * * * * * * * * * * * * * * //

dimensions      [0 0 -1 0 0 0 0];

internalField   nonuniform List<scalar> 
1875
(
293.474
184.577
128.047
95.0065
74.1112
60.2718
50.7304
43.9116
38.893
35.1153
32.2284
30.0055
28.2935
26.985
26.0017
25.2866
24.7926
24.487
24.3477
24.3627
24.5298
24.8572
25.364
26.0815
27.0543
28.3418
30.0176
32.1689
34.8937
38.2975
42.4859
47.5394
53.4488
60.0496
67.0852
73.8217
79.0955
82.4829
83.5967
82.334
78.8655
73.5797
67.0605
59.7156
52.1294
45.2511
39.4382
34.7392
31.0938
28.3187
26.2816
24.8315
23.8302
23.1604
22.7277
22.4629
22.314
22.2398
22.21
22.2009
22.2043
22.2187
22.239
22.2618
22.2844
22.3052
22.3237
22.3396
22.3528
22.3637
22.3724
22.3792
22.3841
22.387
22.3877
293.24
189.682
135.121
102.36
81.0757
66.3463
55.7723
47.9713
42.0865
37.5678
34.052
31.2918
29.114
27.3946
26.0426
24.9887
24.1761
23.5597
23.105
22.7854
22.5813
22.4797
22.4737
22.5626
22.7524
23.0563
23.4958
24.1042
24.9378
26.1051
27.8124
30.3564
33.9311
38.3506
43.1557
47.599
51.4605
55.0656
58.1656
60.4736
61.7489
61.8326
60.6427
58.2267
54.6841
50.3062
45.5099
40.7382
36.3576
32.6065
29.5656
27.211
25.4495
24.1551
23.2249
22.5711
22.117
21.8014
21.5862
21.4407
21.3441
21.282
21.2437
21.2214
21.2093
21.2037
21.2021
21.2026
21.2043
21.2065
21.2088
21.2108
21.2122
21.2121
21.2066
293.164
189.995
136.858
105.133
84.2952
69.712
59.0606
51.0089
44.7731
39.8577
35.9306
32.7615
30.1855
28.0825
26.3628
24.9572
23.8108
22.8776
22.1201
21.5072
21.0134
20.619
20.3095
20.0765
19.919
19.8448
19.8752
20.0586
20.5169
21.5779
24.0037
28.9542
37.0243
46.8953
56.9445
63.9469
66.2857
66.3611
65.7788
64.8173
63.6049
62.1633
60.4418
58.3559
55.8106
52.7421
49.1696
45.2105
41.0817
37.0567
33.3782
30.2036
27.5909
25.519
23.9223
22.7199
21.8294
21.1773
20.7051
20.363
20.1198
19.9486
19.8292
19.7467
19.6905
19.6527
19.6275
19.6109
19.6001
19.5932
19.5889
19.5862
19.5843
19.5822
19.5762
293.088
189.327
136.379
105.222
84.9407
70.7713
60.3555
52.4055
46.175
41.1966
37.1479
33.8154
31.0477
28.7344
26.7927
25.1584
23.7815
22.623
21.65
20.8347
20.154
19.5892
19.1263
18.7577
18.4839
18.3178
18.2962
18.5244
19.3397
21.8152
28.6507
43.935
69.2351
97.6031
126.582
144.302
143.455
133.344
121.587
109.664
98.4778
88.5
79.8624
72.4756
66.1168
60.5157
55.4234
50.6432
46.0592
41.66
37.527
33.7705
30.4802
27.699
25.4202
23.6012
22.1801
21.0914
20.2734
19.6638
19.2131
18.8854
18.6497
18.4821
18.364
18.2816
18.2248
18.1858
18.1594
18.1416
18.1296
18.1217
18.1162
18.1119
18.1055
293.045
188.859
135.603
104.474
84.4214
70.5371
60.3856
52.6517
46.574
41.6831
37.6708
34.3333
31.5289
29.1539
27.1284
25.3938
23.9053
22.6287
21.5372
20.6086
19.8244
19.1695
18.6344
18.214
17.9131
17.7546
17.809
18.319
20.2079
26.7214
46.276
91.2115
166.339
244.002
339.405
400.776
377.228
323.371
267.737
218.286
177.849
146.089
121.507
102.577
87.889
76.3429
67.0856
59.458
52.9876
47.3462
42.3404
37.8872
33.9643
30.5689
27.6906
25.3016
23.3585
21.808
20.5924
19.6572
18.949
18.42
18.0296
17.7458
17.5418
17.3968
17.295
17.2242
17.1755
17.1422
17.1198
17.1046
17.0945
17.0871
17.0792
293.024
188.607
135.064
103.766
83.6885
69.8819
59.8632
52.2799
46.3449
41.5748
37.6598
34.3935
31.6334
29.2782
27.2531
25.5027
23.9861
22.6723
21.5387
20.5666
19.7404
19.0496
18.4884
18.0565
17.7658
17.6568
17.8679
18.9544
23.3001
39.8234
91.6276
212.908
435.454
673.789
1147.35
1636.66
1619.1
1214.6
762.455
478.53
323.121
235.471
178.778
140.884
114.385
95.1711
80.7871
69.7076
60.8626
53.5844
47.4346
42.1471
37.5728
33.6252
30.2475
27.3923
25.0136
23.0627
21.4885
20.239
19.2635
18.5155
17.9507
17.5304
17.2219
16.9986
16.839
16.7265
16.648
16.5939
16.557
16.532
16.5152
16.5036
16.4931
293.013
188.478
134.753
103.295
83.1175
69.2737
59.2701
51.7381
45.8747
41.184
37.3473
34.152
31.4521
29.1441
27.1546
25.4296
23.9292
22.6238
21.4919
20.517
19.6872
18.9963
18.4397
18.0216
17.7636
17.7366
18.2076
20.3971
30.0543
69.622
196.702
519.6
1294.49
2353.98
6408.88
16759.9
24994.6
13761.2
4784.41
1590.27
657.528
347.095
229.878
168.974
132.271
107.757
90.1774
76.9857
66.6712
58.3376
51.4207
45.5588
40.5291
36.199
32.4813
29.3119
26.6361
24.4031
22.5641
21.0713
19.8776
18.9379
18.2104
17.6566
17.2414
16.9349
16.7118
16.5517
16.4384
16.3593
16.3047
16.2675
16.2423
16.2251
16.2112
293.008
188.411
134.579
103.011
82.7432
68.8376
58.8014
51.2625
45.4129
40.7509
36.9521
33.7991
31.142
28.8751
26.9231
25.2314
23.76
22.4799
21.3696
20.4135
19.6007
18.925
18.3858
17.9929
17.7809
17.8672
18.75
22.9826
43.6122
133.752
436.24
1446.14
5880.93
75307.8
500
500
500
500
500
27296.6
3769.56
666.007
283.09
182.777
136.611
109.986
92.0453
78.8053
68.5022
60.1476
53.1788
47.2506
42.1467
37.7321
33.918
30.6399
27.842
25.4755
23.4949
21.8571
20.5208
19.4461
18.5953
17.9322
17.4244
17.0418
16.7582
16.5512
16.4024
16.2969
16.2233
16.1725
16.1379
16.1141
16.0962
293.005
188.373
134.478
102.841
82.5096
68.5523
58.4782
50.9154
45.0547
40.3928
36.603
33.4656
30.8287
28.585
26.6576
24.9908
23.544
22.2878
21.2003
20.2656
19.4732
18.8175
18.3002
17.9367
17.7779
18.0103
19.5282
27.4444
70.2467
272.441
1060.73
6390.74
500
500
500
500
500
500
500
500
89210.7
3485.44
515.844
204.003
134.059
104.364
87.3269
75.4995
66.3733
58.8888
52.5379
47.0458
42.2519
38.0587
34.3998
31.2223
28.4791
26.1274
24.1278
22.4448
21.0448
19.8959
18.967
18.2282
17.6505
17.2067
16.8717
16.6232
16.4418
16.3115
16.2193
16.1551
16.1109
16.0805
16.0583
293.003
188.351
134.418
102.737
82.3649
68.3717
58.2684
50.6831
44.8069
40.1359
36.3428
33.2072
30.5762
28.342
26.4269
24.7745
23.3435
22.1039
21.0333
20.1155
19.3397
18.7009
18.2026
17.8658
17.761
18.1726
20.6477
35.1195
123.433
595.514
2810.34
133330
500
500
500
500
500
500
500
500
500
19962.4
1316.14
304.225
145.566
97.3416
79.4931
69.1563
61.6173
55.4317
50.0839
45.3578
41.1512
37.4106
34.0987
31.1813
28.6249
26.3974
24.4697
22.8159
21.4127
20.2379
19.2691
18.4839
17.8586
17.3698
16.9948
16.7125
16.5037
16.3519
16.2433
16.1669
16.1138
16.0772
16.051
293.002
188.338
134.382
102.675
82.2775
68.2615
58.1389
50.5378
44.6492
39.9693
36.1705
33.0321
30.4013
28.1698
26.2596
24.6141
23.1917
21.9617
20.9013
19.9941
19.2289
18.6013
18.1162
17.7997
17.7442
18.3658
22.2595
48.5262
236.928
1531.14
8978.51
500
500
500
500
500
500
500
500
500
500
500
3710.15
499.412
177.936
99.0873
73.5596
62.598
56.241
51.2628
46.9316
43.0337
39.4976
36.2945
33.4049
30.8112
28.494
26.4346
24.6164
23.0253
21.6489
20.4752
19.4905
18.6792
18.0235
17.5039
17.1002
16.7926
16.5627
16.3939
16.2721
16.1857
16.1253
16.0834
16.0537
293.001
188.331
134.363
102.642
82.2302
68.2018
58.0683
50.4582
44.5622
39.8766
36.0736
32.9325
30.3005
28.0693
26.1608
24.5182
23.0997
21.8743
20.819
19.917
19.1573
18.5352
18.0571
17.753
17.7365
18.5855
24.4821
71.6409
488.212
4020.37
32463.1
500
500
500
500
500
500
500
500
500
500
500
8207.12
732.56
217.999
104.956
71.204
58.5714
52.117
47.9026
44.3185
41.0655
38.0672
35.3032
32.7621
30.4352
28.3152
26.3949
24.669
23.1337
21.7857
20.6204
19.6309
18.8065
18.1335
17.5952
17.1735
16.8497
16.6059
16.4257
16.2949
16.2016
16.136
16.0903
16.0582
293.001
188.329
134.356
102.631
82.215
68.1826
58.0457
50.4326
44.5342
39.8466
36.0422
32.9002
30.2677
28.0364
26.1284
24.4866
23.0692
21.8452
20.7913
19.8908
19.1324
18.5117
18.0352
17.7349
17.7365
18.7462
26.645
102.082
935.718
8655.04
90094.6
500
500
500
500
500
500
500
500
500
500
500
11526.1
777.287
243.037
109.345
70.866
57.1684
50.5664
46.5451
43.2509
40.2567
37.4734
34.8861
32.4858
30.2662
28.2257
26.3624
24.6755
23.1653
21.8316
20.6728
19.684
18.8567
18.1785
17.6339
17.2056
16.8756
16.6261
16.4411
16.3064
16.2099
16.1419
16.0944
16.061
293.001
188.331
134.363
102.642
82.2302
68.2018
58.0683
50.4581
44.5622
39.8765
36.0736
32.9325
30.3006
28.0694
26.161
24.5185
23.1001
21.8748
20.8196
19.9176
19.1575
18.5349
18.0558
17.7496
17.723
18.4802
23.4392
62.121
427.215
4023.34
32463.1
500
500
500
500
500
500
500
500
500
500
500
8207.12
731.814
214.558
104.375
71.1035
58.5811
52.1671
47.9493
44.3413
41.0596
38.0358
35.2537
32.7037
30.3763
28.2623
26.3526
24.6394
23.1173
21.7812
20.6259
19.6436
18.8238
18.1531
17.6151
17.1923
16.8665
16.6202
16.4376
16.3044
16.2089
16.1415
16.0944
16.0612
293.002
188.338
134.382
102.675
82.2774
68.2615
58.1388
50.5378
44.6492
39.9693
36.1705
33.0321
30.4013
28.1699
26.2599
24.6145
23.1924
21.9626
20.9024
19.9951
19.2295
18.6008
18.1137
17.7937
17.7263
18.2606
21.3472
40.8273
190.386
1535.59
8978.51
500
500
500
500
500
500
500
500
500
500
500
3710.15
498.75
175.247
98.3793
73.4387
62.6397
56.3104
51.2956
46.9111
42.9619
39.3868
36.1613
33.2663
30.6816
28.384
26.3503
24.5601
22.996
21.6435
20.4886
19.5174
18.7144
18.0622
17.5426
17.1363
16.8246
16.5898
16.4161
16.2897
16.1992
16.1354
16.0907
16.0591
293.003
188.351
134.418
102.737
82.3649
68.3716
58.2683
50.6831
44.8068
40.1359
36.3428
33.2071
30.5763
28.3422
26.4273
24.7751
23.3446
22.1053
21.035
20.117
19.3406
18.7003
18.1994
17.8579
17.7419
18.0928
20.0814
30.8308
99.6834
598.496
2810.34
133330
500
500
500
500
500
500
500
500
500
19962.4
1314.36
303.535
143.441
96.6925
79.3592
69.1693
61.6218
55.3779
49.963
45.1805
40.9379
37.1846
33.8816
30.9903
28.4711
26.2863
24.4017
22.7872
21.4169
20.2669
19.315
18.5389
17.9165
17.4259
17.046
16.757
16.5408
16.3818
16.2666
16.1845
16.1267
16.0863
16.0574
293.005
188.373
134.478
102.841
82.5096
68.5522
58.4782
50.9153
45.0546
40.3928
36.603
33.4656
30.8288
28.5852
26.6582
24.9918
23.5456
22.29
21.2028
20.2682
19.4751
18.8176
18.297
17.928
17.7586
17.9514
19.2079
25.3396
59.7572
273.664
1075.07
6390.74
500
500
500
500
500
500
500
500
89210.7
3485.44
514.669
200.042
132.055
103.593
87.0207
75.3281
66.2039
58.6761
52.2764
46.7494
41.9428
37.7609
34.1342
31.0041
28.3166
26.0224
24.0767
22.4399
21.0761
19.9524
19.0387
18.3061
17.7277
17.2783
16.9348
16.6764
16.485
16.3454
16.2449
16.1737
16.1238
16.089
16.0637
293.008
188.411
134.579
103.011
82.7432
68.8375
58.8014
51.2625
45.4128
40.7509
36.9521
33.7992
31.1422
28.8757
26.9242
25.2332
23.7627
22.4835
21.3739
20.4181
19.6047
18.927
18.384
17.9849
17.7626
17.8217
18.5677
21.9722
38.8713
128.431
445.891
1465.4
5880.93
75307.8
500
500
500
500
500
27296.6
3769.56
664.932
282.611
179.666
134.905
109.013
91.4266
78.3372
68.0845
59.7389
52.7706
46.8522
41.7753
37.4064
33.653
30.4441
27.7173
25.4172
23.4937
21.9008
20.5961
19.5403
18.6972
18.0331
17.5181
17.1244
16.8279
16.6076
16.4463
16.3298
16.2467
16.1883
16.1475
16.1191
16.0979
293.013
188.478
134.753
103.295
83.1174
69.2736
59.2701
51.738
45.8746
41.1839
37.3473
34.1523
31.4528
29.1454
27.1569
25.4331
23.934
22.63
21.4992
20.5248
19.6944
19.0015
18.4408
18.0159
17.7474
17.7
18.0991
19.9202
28.015
66.0091
197.263
534.341
1312.62
2353.98
6408.88
16759.9
24994.6
13761.2
4784.41
1590.27
656.707
346.887
226.612
166.431
130.528
106.539
89.2738
76.2635
66.0524
57.7844
50.9214
45.1174
40.1565
35.9058
32.2738
29.1894
26.5914
24.4241
22.6356
21.1771
20.0027
19.0692
18.3378
17.7731
17.3429
17.0194
16.7793
16.6034
16.4762
16.3852
16.3209
16.276
16.2449
16.2232
16.2062
293.024
188.607
135.064
103.766
83.6885
69.8818
59.8631
52.2798
46.3448
41.5748
37.6601
34.3942
31.6349
29.2809
27.2574
25.5088
23.9942
22.6825
21.5504
20.5792
19.7524
19.0592
18.4934
18.0542
17.7526
17.6265
17.797
18.7234
22.4476
38.0072
90.9479
218.639
451.284
699.037
1154.31
1638.3
1619.5
1214.74
762.427
478.423
323.085
232.364
176.022
138.787
112.832
93.994
79.857
68.9385
60.2043
53.0141
46.948
41.75
37.273
33.4265
30.1464
27.3785
25.0712
23.1728
21.632
20.3984
19.4244
18.6672
18.0862
17.6459
17.3162
17.0723
16.8939
16.7649
16.6727
16.6075
16.5618
16.5301
16.5082
16.4929
16.4798
293.045
188.859
135.603
104.474
84.4214
70.537
60.3854
52.6516
46.574
41.6833
37.6715
34.3348
31.5317
29.1586
27.1354
25.4036
23.9179
22.6439
21.5544
20.6266
19.8417
19.1839
18.6434
18.2148
17.9027
17.7285
17.7563
18.1947
19.8478
25.9244
45.7004
93.4639
174.799
260.204
357.586
418.384
389.676
328.241
268.712
217.404
176.469
144.68
120.262
101.521
86.994
75.5687
66.4011
58.8461
52.4449
46.8805
41.9651
37.6147
33.7997
30.5079
27.7198
25.4017
23.5074
21.9844
20.7777
19.8368
19.113
18.5626
18.1481
17.8401
17.6133
17.4481
17.329
17.244
17.1839
17.1418
17.1125
17.0924
17.0785
17.0685
17.0587
293.088
189.327
136.379
105.222
84.9406
70.7712
60.3554
52.4054
46.1751
41.1972
37.1493
33.8181
31.0524
28.7418
26.8032
25.1724
23.7987
22.6429
21.6715
20.8565
20.1741
19.6054
19.1362
18.7588
18.4735
18.2925
18.2507
18.4421
19.1676
21.4743
28.3167
44.6123
72.7365
104.973
135.798
153.324
150.739
138.234
124.765
111.567
99.5035
88.9464
79.9347
72.3119
65.8097
60.1288
55.0046
50.2326
45.6923
41.3668
37.328
33.6734
30.4796
27.7792
25.5596
23.7769
22.3712
21.2811
20.4495
19.8191
19.3439
18.991
18.7311
18.5415
18.4045
18.3064
18.2367
18.1877
18.1535
18.1299
18.1136
18.1025
18.0948
18.089
18.0816
293.164
189.995
136.858
105.133
84.2952
69.7118
59.0605
51.0089
44.7735
39.8587
35.9329
32.7657
30.1923
28.0924
26.3761
24.9736
23.8298
22.8982
22.1409
21.5265
21.0296
20.63
20.3134
20.0712
19.9022
19.814
19.8271
19.9865
20.4044
21.3999
23.7988
29.0151
37.9738
49.1715
60.0507
67.1851
69.141
68.5749
67.401
65.9178
64.2706
62.4862
60.5095
58.2463
55.5907
52.4697
48.8941
44.9723
40.9102
36.9681
33.3743
30.2741
27.7178
25.6812
24.1002
22.8972
21.9945
21.3233
20.8284
20.4628
20.197
20.0052
19.8679
19.7705
19.7021
19.6546
19.6219
19.5996
19.5846
19.5746
19.568
19.5637
19.5607
19.5577
19.5517
293.24
189.682
135.121
102.36
81.0757
66.3462
55.7723
47.9716
42.0874
37.5698
34.0556
31.2975
29.1221
27.4052
26.0552
25.0027
24.1905
23.5732
23.1165
22.7936
22.5849
22.4773
22.4639
22.5438
22.7227
23.0134
23.4365
24.024
24.8296
25.9587
27.631
30.2003
33.9433
38.6462
43.6564
48.1448
51.9123
55.3729
58.3303
60.509
61.6802
61.6907
60.4575
58.0261
54.4949
50.153
45.4101
40.701
36.3829
32.6858
29.6848
27.3538
25.6004
24.3019
23.3589
22.6877
22.214
21.8785
21.6444
21.4818
21.3705
21.2962
21.248
21.2177
21.1996
21.1893
21.1841
21.1821
21.1819
21.1828
21.184
21.1853
21.186
21.1851
21.1795
293.474
184.577
128.047
95.0065
74.1112
60.272
50.731
43.9128
38.8955
35.1195
32.2347
30.014
28.3041
26.9969
26.014
25.2983
24.8027
24.4943
24.3513
24.3616
24.5233
24.8445
25.3443
26.0537
27.0175
28.2946
29.9585
32.096
34.8048
38.1901
42.3606
47.4087
53.3423
59.9953
67.0816
73.8486
79.1295
82.5115
83.616
82.3407
78.8579
73.5587
67.0309
59.6863
52.1131
45.2601
39.4798
34.8138
31.1954
28.437
26.4057
24.9518
23.9398
23.2551
22.8058
22.5243
22.3598
22.2717
22.2298
22.2108
22.2061
22.2141
22.2295
22.2485
22.2682
22.2869
22.3039
22.3186
22.3311
22.3414
22.3496
22.3559
22.36
22.3607
22.3547
)
;

boundaryField
{
    ibCylinder
    {
        type            immersedBoundaryOmegaWallFunction;
        patchType       immersedBoundary;
        blending        stepwise;
        setDeadValue    true;
        deadValue       500;
        value           nonuniform List<scalar> 0();
    }
    in
    {
        type            fixedValue;
        value           uniform 500;
    }
    out
    {
        type            inletOutlet;
        inletValue      uniform 500;
        value           nonuniform List<scalar> 
25
(
22.3877
21.2066
19.5762
18.1055
17.0792
16.4931
16.2112
16.0962
16.0583
16.051
16.0537
16.0582
16.061
16.0612
16.0591
16.0574
16.0637
16.0979
16.2062
16.4798
17.0587
18.0816
19.5517
21.1795
22.3547
)
;
    }
    top
    {
        type            zeroGradient;
    }
    bottom
    {
        type            zeroGradient;
    }
    frontAndBack
    {
        type            empty;
    }
}


// ************************************************************************* //
