/*--------------------------------*- C++ -*----------------------------------*\
| =========                 |                                                 |
| \\      /  F ield         | OpenFOAM: The Open Source CFD Toolbox           |
|  \\    /   O peration     | Version:  2206                                  |
|   \\  /    A nd           | Website:  www.openfoam.com                      |
|    \\/     M anipulation  |                                                 |
\*---------------------------------------------------------------------------*/
FoamFile
{
    version     2.0;
    format      ascii;
    arch        "LSB;label=32;scalar=64";
    class       volScalarField;
    location    "0.8";
    object      p;
}
// * * * * * * * * * * * * * * * * * * * * * * * * * * * * * * * * * * * * * //

dimensions      [0 2 -2 0 0 0 0];

internalField   nonuniform List<scalar> 
1875
(
6.92946
6.54011
6.28913
6.19119
6.1311
6.08354
6.04856
6.0233
6.00341
5.98607
5.9698
5.95371
5.93716
5.91966
5.90079
5.87982
5.85595
5.82817
5.79533
5.75594
5.70803
5.64904
5.57568
5.48381
5.36818
5.2223
5.03832
4.80712
4.51875
4.16353
3.73413
3.22898
2.65708
2.04224
1.42002
0.823805
0.296354
-0.124985
-0.432347
-0.631374
-0.740701
-0.783682
-0.776426
-0.731742
-0.666592
-0.59409
-0.520125
-0.447912
-0.378605
-0.313135
-0.252693
-0.197693
-0.148364
-0.105141
-0.0678684
-0.0363754
-0.0102787
0.0107123
0.0271113
0.039393
0.0480066
0.0534617
0.0563279
0.0570757
0.0561009
0.0537353
0.0502732
0.0459462
0.0409459
0.0354233
0.0295024
0.0232779
0.0168277
0.0102126
0.00347187
6.55464
6.39914
6.27043
6.19293
6.13945
6.09582
6.06088
6.03431
6.01267
5.99365
5.97599
5.95881
5.94145
5.92337
5.90402
5.88283
5.85882
5.83106
5.79842
5.75944
5.71214
5.654
5.58174
5.49118
5.37701
5.23255
5.04958
4.81836
4.52795
4.16723
3.72716
3.20431
2.60616
1.95775
1.29894
0.677317
0.141237
-0.27521
-0.556036
-0.717134
-0.787054
-0.793891
-0.758194
-0.696403
-0.625346
-0.554302
-0.485345
-0.418888
-0.355036
-0.294643
-0.23826
-0.186186
-0.139196
-0.0979302
-0.0621581
-0.0316728
-0.00650386
0.0136914
0.0293917
0.0409801
0.0490897
0.0542601
0.0569237
0.0575161
0.0564194
0.0539678
0.050441
0.0460662
0.0410298
0.0354814
0.029541
0.0233032
0.0168437
0.0102197
0.00348205
6.37818
6.32778
6.25715
6.19835
6.15052
6.10915
6.07505
6.04713
6.02369
6.00336
5.98477
5.96687
5.94912
5.93096
5.91183
5.89113
5.868
5.84146
5.8105
5.77374
5.72934
5.67478
5.60681
5.52119
5.41234
5.27305
5.09417
4.86434
4.57013
4.19689
3.73124
3.16491
2.50264
1.77494
1.03344
0.341056
-0.227482
-0.639772
-0.881347
-0.975063
-0.973514
-0.918129
-0.832168
-0.731671
-0.630086
-0.53584
-0.453631
-0.382838
-0.319987
-0.263257
-0.211379
-0.163922
-0.121078
-0.0831066
-0.0500408
-0.0218143
0.00137029
0.0199832
0.0344269
0.044976
0.0521743
0.0566553
0.0587706
0.058929
0.0574861
0.054765
0.0510332
0.0465017
0.0413463
0.0357081
0.0296999
0.0234109
0.0169131
0.0102554
0.00349918
6.29932
6.27837
6.23335
6.18895
6.15066
6.11674
6.08643
6.05882
6.03573
6.01561
5.99639
5.97806
5.96054
5.94321
5.92531
5.90625
5.88534
5.86173
5.83451
5.80248
5.76398
5.71662
5.65711
5.58118
5.48286
5.35411
5.18419
4.95896
4.66076
4.26866
3.76161
3.12178
2.34599
1.47616
0.57882
-0.225627
-0.847257
-1.24742
-1.41757
-1.40717
-1.30178
-1.15656
-0.995471
-0.832161
-0.679716
-0.545765
-0.435269
-0.345466
-0.272899
-0.21412
-0.165107
-0.122934
-0.0860444
-0.0538788
-0.0261034
-0.00256209
0.0167709
0.032192
0.0440219
0.0524598
0.0579193
0.0610234
0.0620781
0.0614412
0.059368
0.0561629
0.0520631
0.0472507
0.041884
0.0360876
0.0299613
0.0235837
0.0170193
0.0103073
0.00351222
6.24738
6.23655
6.20901
6.17678
6.14662
6.11874
6.09292
6.06876
6.04751
6.02839
6.00967
5.99215
5.97603
5.96038
5.94426
5.92739
5.90961
5.89043
5.8688
5.84367
5.8137
5.77685
5.72971
5.66788
5.58533
5.47303
5.31827
5.10331
4.80452
4.39093
3.82865
3.07341
2.09765
0.970425
-0.199995
-1.14441
-1.77271
-2.12169
-2.17605
-2.00832
-1.76029
-1.49748
-1.24642
-1.00374
-0.785218
-0.597136
-0.444413
-0.320161
-0.222701
-0.151349
-0.10061
-0.062772
-0.032905
-0.00876522
0.0110585
0.0273955
0.0405827
0.0508607
0.0583952
0.0634233
0.0663235
0.0673329
0.0667704
0.0648875
0.0619237
0.0580376
0.0534209
0.048222
0.0425668
0.0365572
0.0302743
0.0237818
0.0171323
0.0103575
0.00351359
6.21171
6.20553
6.18808
6.16515
6.14166
6.11878
6.09688
6.07602
6.05649
6.03873
6.02227
6.00667
5.99212
5.97846
5.96499
5.95152
5.93816
5.92459
5.91006
5.89393
5.875
5.8512
5.81978
5.77687
5.71633
5.62847
5.49871
5.30541
5.01711
4.58766
3.95928
3.02214
1.7847
0.405549
-1.07287
-2.27178
-2.91114
-3.11879
-2.99736
-2.60736
-2.2061
-1.83139
-1.49823
-1.19862
-0.921887
-0.673936
-0.472723
-0.310412
-0.180169
-0.0885573
-0.0286781
0.00953356
0.0339695
0.0494705
0.0596562
0.0668014
0.0718843
0.0752983
0.0772418
0.0778645
0.0772134
0.0754671
0.0728039
0.0692815
0.0651054
0.060352
0.0550965
0.0494191
0.0434045
0.0371291
0.0306515
0.0240176
0.0172643
0.0104178
0.00351057
6.18687
6.18297
6.1712
6.15447
6.13614
6.1175
6.09903
6.0811
6.06407
6.04827
6.0336
6.01981
6.00694
5.99546
5.98536
5.97624
5.96811
5.9606
5.9538
5.94755
5.94099
5.93274
5.92084
5.90194
5.87026
5.81618
5.72417
5.56925
5.31173
4.8869
4.19569
3.12491
1.82195
0.583621
-0.959437
-2.72652
-3.67538
-3.88672
-3.70525
-3.01452
-2.48195
-2.00766
-1.63665
-1.32117
-1.0214
-0.741077
-0.495825
-0.298219
-0.144798
-0.0329659
0.04095
0.0839687
0.105228
0.112998
0.113925
0.111603
0.107838
0.103521
0.0990287
0.0944708
0.089793
0.0848888
0.0797929
0.0744552
0.068867
0.0630559
0.0570269
0.0507939
0.0443753
0.0377996
0.0310987
0.0243007
0.0174252
0.0104915
0.00350712
6.16914
6.16641
6.15796
6.14539
6.13087
6.11555
6.09998
6.0846
6.06982
6.05593
6.04308
6.03135
6.02093
6.01204
6.0049
5.99964
5.99636
5.99522
5.99656
6.00053
6.00696
6.01554
6.02528
6.0337
6.03628
6.02469
5.98402
5.88814
5.69157
5.31813
4.64996
3.65953
2.60532
0.405373
0
0
0
0
0
-2.86899
-2.48375
-1.95845
-1.61494
-1.32507
-1.04476
-0.764012
-0.497728
-0.27261
-0.0972666
0.0295435
0.111098
0.155266
0.173158
0.174881
0.167864
0.156721
0.14441
0.132474
0.121585
0.111812
0.102968
0.0947919
0.0871975
0.0799486
0.0728925
0.0659817
0.0591299
0.0522931
0.0454329
0.0385342
0.0315951
0.0246218
0.0176146
0.0105855
0.00351462
6.15639
6.15434
6.14793
6.13812
6.12638
6.1136
6.10031
6.08699
6.07408
6.06192
6.05079
6.04092
6.03259
6.02608
6.02175
6.02007
6.02146
6.02641
6.03553
6.04948
6.06887
6.09427
6.12582
6.16278
6.20273
6.23993
6.26234
6.24585
6.14389
5.86557
5.25541
4.46426
0
0
0
0
0
0
0
0
-2.23277
-1.81862
-1.50567
-1.24616
-0.991147
-0.726716
-0.46582
-0.233519
-0.0451217
0.0912804
0.177678
0.222646
0.23716
0.232528
0.217335
0.197854
0.177903
0.159317
0.142737
0.128186
0.115465
0.104304
0.0943478
0.0852571
0.0768293
0.0688578
0.0612084
0.0537925
0.0464994
0.039279
0.0321029
0.0249554
0.0178176
0.010695
0.00353493
6.14741
6.14577
6.14063
6.13264
6.12284
6.11192
6.10035
6.08862
6.07719
6.06647
6.05677
6.04844
6.04187
6.03744
6.03561
6.037
6.04239
6.05253
6.06839
6.09113
6.12209
6.16274
6.21457
6.27873
6.35545
6.44275
6.53375
6.61151
6.64106
6.51479
6.07371
5.51888
0
0
0
0
0
0
0
0
0
-1.66442
-1.38273
-1.15149
-0.917691
-0.667728
-0.415032
-0.1843
0.00488012
0.143607
0.232016
0.276864
0.288825
0.279436
0.25826
0.232409
0.206288
0.182098
0.160671
0.142142
0.126255
0.11258
0.100561
0.0899008
0.0803124
0.0714143
0.0630656
0.0551457
0.04747
0.0399613
0.0325711
0.0252662
0.0180096
0.0107986
0.00355781
6.14145
6.14005
6.13569
6.12885
6.12031
6.11065
6.10029
6.08968
6.07933
6.06966
6.06103
6.05387
6.04863
6.0458
6.04593
6.04966
6.05807
6.0722
6.09329
6.12291
6.163
6.21588
6.28424
6.371
6.47902
6.61015
6.7633
6.92976
7.0801
7.127
7.14745
0
0
0
0
0
0
0
0
0
0
0
-1.25383
-1.06105
-0.844159
-0.607643
-0.364057
-0.138584
0.048352
0.185885
0.272987
0.316089
0.325491
0.312703
0.287495
0.257352
0.227017
0.19895
0.174145
0.152757
0.134505
0.118908
0.105403
0.0935696
0.0830226
0.0734277
0.0645417
0.0562068
0.0482364
0.0405063
0.0329474
0.0255174
0.0181663
0.0108835
0.00357906
6.13803
6.13676
6.13283
6.12662
6.1188
6.10986
6.10021
6.09029
6.08059
6.07155
6.06359
6.05714
6.05271
6.05088
6.05228
6.05756
6.0678
6.08443
6.10882
6.14283
6.18877
6.24954
6.32868
6.43038
6.55937
6.72037
6.91668
7.1456
7.38392
7.60082
7.95154
0
0
0
0
0
0
0
0
0
0
0
-1.12832
-0.988925
-0.787478
-0.561208
-0.324291
-0.103725
0.0798246
0.215014
0.299737
0.3409
0.348817
0.333744
0.30557
0.272593
0.239703
0.209311
0.182456
0.159329
0.139634
0.12286
0.108447
0.095902
0.0847858
0.074742
0.0655046
0.0568812
0.0487187
0.0408548
0.0331905
0.0256793
0.0182676
0.010939
0.00359397
6.13692
6.1357
6.13189
6.12587
6.11829
6.10959
6.10018
6.09048
6.08099
6.07218
6.06443
6.05822
6.05406
6.05255
6.05443
6.06029
6.07109
6.08857
6.1141
6.1496
6.19755
6.26105
6.34393
6.45083
6.58715
6.75867
6.97021
7.22124
7.49163
7.77672
8.18636
0
0
0
0
0
0
0
0
0
0
0
-1.0716
-0.959216
-0.765172
-0.543363
-0.30881
-0.0901213
0.0919265
0.225877
0.309538
0.349978
0.357556
0.341384
0.311754
0.277666
0.243939
0.212783
0.185246
0.16154
0.141364
0.124197
0.109472
0.096682
0.0853767
0.0752209
0.0658725
0.0571022
0.0488725
0.0409712
0.033274
0.0257346
0.0183021
0.0109574
0.00359873
6.13802
6.13675
6.13282
6.1266
6.11879
6.10985
6.1002
6.09027
6.08057
6.07154
6.06357
6.05712
6.0527
6.05086
6.05227
6.05755
6.06778
6.08441
6.10881
6.14281
6.18875
6.24952
6.32867
6.43037
6.55935
6.72035
6.91666
7.14558
7.38389
7.60081
7.95155
0
0
0
0
0
0
0
0
0
0
0
-1.1284
-0.988996
-0.787535
-0.56125
-0.324319
-0.103742
0.0798156
0.21501
0.299733
0.340894
0.348811
0.333735
0.305558
0.27258
0.239689
0.209298
0.182443
0.159316
0.139622
0.122849
0.108437
0.0958929
0.0847776
0.0747344
0.0654975
0.0568749
0.0487132
0.0408501
0.0331867
0.0256765
0.0182657
0.0109379
0.00359363
6.14142
6.14002
6.13567
6.12882
6.12029
6.11062
6.10026
6.08966
6.0793
6.06963
6.061
6.05384
6.0486
6.04577
6.0459
6.04963
6.05804
6.07217
6.09326
6.12288
6.16297
6.21585
6.2842
6.37097
6.47898
6.61012
6.76326
6.92972
7.08005
7.12694
7.14767
0
0
0
0
0
0
0
0
0
0
0
-1.254
-1.0612
-0.844272
-0.607725
-0.364111
-0.138617
0.0483346
0.185875
0.272978
0.316076
0.325473
0.312681
0.287471
0.257325
0.22699
0.198923
0.174119
0.152733
0.134482
0.118886
0.105383
0.0935514
0.0830061
0.0734125
0.0645278
0.0561943
0.0482253
0.0404968
0.0329398
0.0255116
0.0181623
0.0108813
0.00357837
6.14738
6.14573
6.14059
6.13261
6.1228
6.11188
6.10031
6.08858
6.07715
6.06643
6.05672
6.0484
6.04182
6.0374
6.03557
6.03696
6.04235
6.05249
6.06834
6.09108
6.12204
6.16269
6.21452
6.27867
6.3554
6.44269
6.53369
6.61145
6.64099
6.51474
6.0737
5.51884
0
0
0
0
0
0
0
0
0
-1.6647
-1.38299
-1.15171
-0.917861
-0.667847
-0.415111
-0.184351
0.00485001
0.143586
0.231995
0.276838
0.288793
0.2794
0.258221
0.232368
0.206247
0.182058
0.160633
0.142105
0.12622
0.112547
0.100531
0.0898732
0.0802875
0.0713917
0.0630449
0.0551269
0.0474534
0.0399472
0.0325597
0.0252576
0.0180037
0.0107952
0.00355676
6.15635
6.15429
6.14788
6.13807
6.12633
6.11356
6.10026
6.08693
6.07402
6.06187
6.05073
6.04086
6.03253
6.02602
6.02169
6.02001
6.0214
6.02634
6.03547
6.04941
6.06881
6.0942
6.12575
6.16271
6.20266
6.23985
6.26225
6.24576
6.1438
5.86548
5.25533
4.46416
0
0
0
0
0
0
0
0
-2.23329
-1.81906
-1.50604
-1.24646
-0.991375
-0.726877
-0.465929
-0.233595
-0.0451749
0.0912391
0.177638
0.222602
0.237109
0.232475
0.21728
0.197799
0.177848
0.159263
0.142685
0.128137
0.115419
0.10426
0.0943076
0.0852206
0.0767961
0.0688276
0.0611809
0.0537675
0.0464773
0.0392602
0.0320876
0.0249439
0.0178097
0.0106905
0.00353352
6.16908
6.16635
6.1579
6.14533
6.13081
6.11549
6.09992
6.08454
6.06975
6.05587
6.04302
6.03128
6.02086
6.01197
6.00483
5.99957
5.99629
5.99514
5.99648
6.00045
6.00688
6.01546
6.02519
6.03361
6.03618
6.02458
5.98391
5.88803
5.69145
5.31802
4.64983
3.65939
2.60506
0.404121
0
0
0
0
0
-2.86946
-2.48433
-1.95893
-1.61538
-1.32546
-1.04506
-0.764226
-0.497857
-0.272722
-0.09735
0.0294702
0.111028
0.155194
0.173084
0.174806
0.167789
0.156649
0.14434
0.132407
0.121521
0.11175
0.10291
0.0947376
0.0871474
0.0799029
0.0728509
0.065944
0.0590956
0.0522621
0.0454055
0.0385107
0.0315761
0.0246073
0.0176046
0.0105799
0.00351282
6.1868
6.1829
6.17113
6.1544
6.13607
6.11743
6.09896
6.08102
6.06399
6.0482
6.03353
6.01973
6.00686
5.99538
5.98527
5.97615
5.96802
5.96051
5.95371
5.94745
5.94089
5.93264
5.92073
5.90183
5.87014
5.81606
5.72404
5.56912
5.31159
4.88675
4.19555
3.12475
1.82178
0.583365
-0.959927
-2.72687
-3.67564
-3.88696
-3.70562
-3.01495
-2.48231
-2.00811
-1.63714
-1.32159
-1.02173
-0.741316
-0.496005
-0.298376
-0.144921
-0.0330751
0.0408423
0.083863
0.105126
0.1129
0.113831
0.111514
0.107753
0.10344
0.0989514
0.0943974
0.0897239
0.0848242
0.0797331
0.0744005
0.0688172
0.0630107
0.0569859
0.050757
0.0443426
0.0377717
0.031076
0.0242834
0.0174132
0.0104846
0.00350489
6.21164
6.20545
6.188
6.16507
6.14158
6.1187
6.0968
6.07594
6.0564
6.03864
6.02218
6.00658
5.99203
5.97837
5.9649
5.95143
5.93806
5.92449
5.90995
5.89382
5.87489
5.85108
5.81966
5.77674
5.71618
5.62831
5.49855
5.30525
5.01694
4.58748
3.95909
3.0219
1.78447
0.405188
-1.07337
-2.27217
-2.91153
-3.11926
-2.99784
-2.60782
-2.20653
-1.83186
-1.49871
-1.19905
-0.922233
-0.674208
-0.472962
-0.31061
-0.180349
-0.0887116
-0.0288264
0.00939398
0.03384
0.0493499
0.0595446
0.0666968
0.0717855
0.0752043
0.0771525
0.0777797
0.0771341
0.0753929
0.072735
0.0692183
0.0650478
0.0602998
0.0550493
0.0493765
0.0433668
0.0370968
0.0306252
0.0239974
0.0172502
0.0104096
0.0035079
6.2473
6.23646
6.20892
6.1767
6.14654
6.11866
6.09283
6.06867
6.04741
6.0283
6.00957
5.99205
5.97593
5.96028
5.94416
5.92728
5.9095
5.89031
5.86868
5.84355
5.81358
5.77672
5.72957
5.66773
5.58517
5.47285
5.31809
5.10312
4.80433
4.39072
3.82844
3.07318
2.09739
0.970117
-0.200346
-1.14486
-1.77326
-2.1222
-2.17648
-2.00874
-1.76068
-1.49786
-1.24689
-1.00421
-0.78559
-0.597478
-0.444717
-0.320414
-0.222926
-0.151551
-0.100796
-0.0629403
-0.0330575
-0.00890414
0.0109308
0.0272766
0.0404709
0.050755
0.0582953
0.0633295
0.066235
0.0672501
0.0666934
0.0648165
0.0618591
0.057979
0.0533679
0.0481744
0.0425246
0.036521
0.0302447
0.023759
0.0171163
0.010348
0.00351049
6.29923
6.27828
6.23326
6.18886
6.15057
6.11665
6.08634
6.05873
6.03563
6.01551
5.99629
5.97795
5.96043
5.9431
5.9252
5.90613
5.88521
5.8616
5.83439
5.80235
5.76384
5.71647
5.65695
5.58101
5.48268
5.35392
5.18399
4.95876
4.66055
4.26843
3.76136
3.12153
2.34573
1.47591
0.578522
-0.226022
-0.84765
-1.2478
-1.41797
-1.4076
-1.3022
-1.15699
-0.995932
-0.832602
-0.680117
-0.546136
-0.435607
-0.345767
-0.273168
-0.214359
-0.165321
-0.123125
-0.0862157
-0.0540341
-0.0262458
-0.00269414
0.0166473
0.0320758
0.0439123
0.052357
0.0578228
0.0609332
0.0619941
0.0613637
0.0592972
0.0560987
0.0520051
0.0471987
0.0418379
0.0360481
0.0299288
0.0235585
0.0170015
0.0102968
0.00350873
6.37808
6.32769
6.25705
6.19825
6.15042
6.10905
6.07495
6.04702
6.02358
6.00325
5.98466
5.96676
5.949
5.93084
5.91171
5.89101
5.86787
5.84133
5.81036
5.7736
5.72919
5.67463
5.60665
5.52101
5.41214
5.27285
5.09395
4.86411
4.5699
4.19664
3.73098
3.16463
2.50234
1.77464
1.03313
0.340708
-0.227829
-0.640152
-0.881749
-0.975478
-0.973949
-0.918578
-0.83262
-0.732118
-0.630506
-0.536229
-0.453991
-0.383165
-0.320282
-0.263519
-0.211612
-0.164131
-0.121266
-0.0832765
-0.0501962
-0.0219577
0.00123648
0.0198583
0.0343096
0.0448663
0.0520717
0.0565594
0.0586812
0.0588466
0.0574107
0.0546966
0.0509713
0.0464462
0.0412973
0.035666
0.0296652
0.023384
0.0168939
0.0102439
0.00349537
6.55454
6.39904
6.27033
6.19283
6.13934
6.09572
6.06078
6.0342
6.01256
5.99354
5.97588
5.95869
5.94133
5.92325
5.9039
5.8827
5.85869
5.83092
5.79828
5.75929
5.71199
5.65383
5.58156
5.49099
5.37681
5.23233
5.04936
4.81813
4.52771
4.16698
3.72689
3.20402
2.60584
1.95741
1.2986
0.676968
0.140874
-0.27559
-0.556431
-0.717546
-0.787471
-0.794322
-0.75864
-0.696845
-0.625768
-0.5547
-0.485714
-0.419225
-0.355343
-0.294918
-0.238506
-0.186407
-0.139395
-0.0981105
-0.0623226
-0.0318242
-0.00664431
0.0135607
0.0292696
0.040866
0.0489835
0.054161
0.0568313
0.0574304
0.0563409
0.0538966
0.0503765
0.0460085
0.0409789
0.0354378
0.029505
0.0232752
0.0168237
0.0102077
0.00347805
6.92936
6.54001
6.28903
6.19109
6.131
6.08344
6.04845
6.0232
6.0033
5.98595
5.96969
5.95359
5.93704
5.91954
5.90066
5.87969
5.85582
5.82803
5.79519
5.7558
5.70788
5.64887
5.5755
5.48362
5.36797
5.22208
5.0381
4.80689
4.51851
4.16328
3.73386
3.22869
2.65676
2.0419
1.41968
0.823453
0.295993
-0.125365
-0.432754
-0.631805
-0.741137
-0.784128
-0.776895
-0.732187
-0.667014
-0.594494
-0.520498
-0.448254
-0.378916
-0.313414
-0.252944
-0.197916
-0.148566
-0.105322
-0.068036
-0.0365287
-0.0104217
0.0105803
0.0269877
0.0392785
0.0478991
0.0533617
0.0562341
0.0569896
0.0560206
0.053663
0.0502075
0.0458878
0.040894
0.0353792
0.0294656
0.0232496
0.0168074
0.0102004
0.0034678
)
;

boundaryField
{
    ibCylinder
    {
        type            zeroGradientIb;
        patchType       immersedBoundary;
        setDeadValue    true;
        deadValue       0;
        value           nonuniform List<scalar> 0();
    }
    in
    {
        type            zeroGradient;
    }
    out
    {
        type            fixedValue;
        value           uniform 0;
    }
    top
    {
        type            zeroGradient;
    }
    bottom
    {
        type            zeroGradient;
    }
    frontAndBack
    {
        type            empty;
    }
}


// ************************************************************************* //
