/*--------------------------------*- C++ -*----------------------------------*\
| =========                 |                                                 |
| \\      /  F ield         | OpenFOAM: The Open Source CFD Toolbox           |
|  \\    /   O peration     | Version:  2206                                  |
|   \\  /    A nd           | Website:  www.openfoam.com                      |
|    \\/     M anipulation  |                                                 |
\*---------------------------------------------------------------------------*/
FoamFile
{
    version     2.0;
    format      ascii;
    arch        "LSB;label=32;scalar=64";
    class       surfaceVectorField;
    location    "0.8";
    object      Uf;
}
// * * * * * * * * * * * * * * * * * * * * * * * * * * * * * * * * * * * * * //

dimensions      [0 1 -1 0 0 0 0];

internalField   nonuniform List<vector> 
3650
(
(0.859867 0.0532292 0)
(0.903268 0.140133 0)
(0.701566 0.0845952 0)
(0.900404 0.158302 0)
(0.567619 0.0660729 0)
(0.843413 0.133946 0)
(0.464243 0.0366273 0)
(0.752578 0.103377 0)
(0.388315 0.0189279 0)
(0.672567 0.0759276 0)
(0.334512 0.0102416 0)
(0.607321 0.0538036 0)
(0.296713 0.00548331 0)
(0.555084 0.0377989 0)
(0.270204 0.00282261 0)
(0.512971 0.0265085 0)
(0.251394 0.00137864 0)
(0.479731 0.0188101 0)
(0.237867 0.000573237 0)
(0.453805 0.0135275 0)
(0.228162 7.62775e-05 0)
(0.433734 0.00970552 0)
(0.221396 -0.000290301 0)
(0.418441 0.00676635 0)
(0.21709 -0.000631289 0)
(0.407167 0.00430609 0)
(0.215045 -0.000996273 0)
(0.399476 0.00204502 0)
(0.215223 -0.00143826 0)
(0.395255 -0.000177895 0)
(0.217601 -0.00198983 0)
(0.394415 -0.00237798 0)
(0.222374 -0.00265827 0)
(0.396874 -0.00477284 0)
(0.229937 -0.0034771 0)
(0.403062 -0.00756277 0)
(0.240768 -0.00449609 0)
(0.413444 -0.0108306 0)
(0.255484 -0.00577425 0)
(0.428601 -0.0147159 0)
(0.274879 -0.00737232 0)
(0.449331 -0.0193953 0)
(0.299944 -0.00935575 0)
(0.476663 -0.0250651 0)
(0.331878 -0.0117912 0)
(0.511851 -0.0319341 0)
(0.372086 -0.014734 0)
(0.556392 -0.0402074 0)
(0.422131 -0.0182054 0)
(0.611994 -0.050045 0)
(0.483632 -0.0221588 0)
(0.680504 -0.0615011 0)
(0.558061 -0.0264297 0)
(0.763756 -0.0744285 0)
(0.646414 -0.0306698 0)
(0.863314 -0.0883526 0)
(0.74873 -0.0342714 0)
(0.980082 -0.102316 0)
(0.863425 -0.0363184 0)
(1.11372 -0.114695 0)
(0.986565 -0.0355784 0)
(1.2619 -0.12314 0)
(1.11117 -0.0305449 0)
(1.41947 -0.124605 0)
(1.22663 -0.0199996 0)
(1.57796 -0.115456 0)
(1.31942 -0.00468877 0)
(1.7256 -0.0927962 0)
(1.37608 0.0142521 0)
(1.84694 -0.0566552 0)
(1.38584 0.0332952 0)
(1.92476 -0.00976619 0)
(1.3461 0.049859 0)
(1.94938 0.0397444 0)
(1.26151 0.0626391 0)
(1.91855 0.0845877 0)
(1.13938 0.0679098 0)
(1.83509 0.122127 0)
(0.993718 0.0647661 0)
(1.70727 0.145666 0)
(0.839821 0.0553469 0)
(1.54843 0.153898 0)
(0.691221 0.0430312 0)
(1.37114 0.148602 0)
(0.558063 0.0287484 0)
(1.19217 0.133159 0)
(0.446244 0.0156941 0)
(1.01419 0.11182 0)
(0.356242 0.00813138 0)
(0.850134 0.090003 0)
(0.285267 0.00464972 0)
(0.707077 0.0709763 0)
(0.23096 0.00340761 0)
(0.587725 0.0543079 0)
(0.190582 0.00275064 0)
(0.492307 0.0403796 0)
(0.161963 0.00126195 0)
(0.420627 0.028621 0)
(0.143028 -2.43618e-05 0)
(0.36707 0.0189357 0)
(0.131614 -0.000648075 0)
(0.330043 0.0114148 0)
(0.126151 -0.0011315 0)
(0.306085 0.00546356 0)
(0.125022 -0.00136818 0)
(0.291718 0.00113002 0)
(0.126663 -0.00144041 0)
(0.284585 -0.00164113 0)
(0.130184 -0.0014778 0)
(0.282785 -0.00351963 0)
(0.134859 -0.00143489 0)
(0.284468 -0.0046749 0)
(0.140117 -0.00138797 0)
(0.288288 -0.00525707 0)
(0.145419 -0.00141124 0)
(0.293361 -0.00530259 0)
(0.150524 -0.00144148 0)
(0.298828 -0.00510411 0)
(0.155216 -0.00138301 0)
(0.304261 -0.00469183 0)
(0.159375 -0.00120607 0)
(0.309394 -0.00415848 0)
(0.162957 -0.000991555 0)
(0.314031 -0.00358229 0)
(0.165984 -0.00080829 0)
(0.318076 -0.00302616 0)
(0.168496 -0.000657954 0)
(0.321506 -0.00251157 0)
(0.170553 -0.00052579 0)
(0.324394 -0.00205719 0)
(0.172216 -0.000415169 0)
(0.326771 -0.00166284 0)
(0.173545 -0.000324638 0)
(0.328702 -0.00132858 0)
(0.174596 -0.000251611 0)
(0.330251 -0.00105083 0)
(0.175419 -0.000193214 0)
(0.33148 -0.00082296 0)
(0.176057 -0.000146865 0)
(0.332446 -0.000638327 0)
(0.176547 -0.00011026 0)
(0.333197 -0.000489698 0)
(0.176918 -8.1337e-05 0)
(0.333772 -0.000370944 0)
(0.177194 -5.77339e-05 0)
(0.334208 -0.000276027 0)
(0.177393 -4.45612e-05 0)
(0.334531 -0.000199076 0)
(0.334804 -0.00014427 0)
(1.05175 0.154784 0)
(1.01329 0.0883793 0)
(1.04756 0.183022 0)
(1.05554 0.162498 0)
(1.01082 0.168117 0)
(1.0677 0.17068 0)
(0.955777 0.143261 0)
(1.04952 0.158424 0)
(0.891503 0.113208 0)
(1.0144 0.140202 0)
(0.827461 0.0844943 0)
(0.971973 0.117846 0)
(0.770207 0.061724 0)
(0.928662 0.0950529 0)
(0.72173 0.044993 0)
(0.886239 0.0749862 0)
(0.681728 0.0329311 0)
(0.847238 0.0588123 0)
(0.649394 0.0240765 0)
(0.813226 0.0458613 0)
(0.623817 0.0173318 0)
(0.784501 0.035283 0)
(0.604047 0.0119024 0)
(0.760875 0.026536 0)
(0.5894 0.00718094 0)
(0.741996 0.0189539 0)
(0.579497 0.0027665 0)
(0.727684 0.0119485 0)
(0.574173 -0.00149823 0)
(0.717917 0.00514602 0)
(0.573386 -0.0058544 0)
(0.712779 -0.00159144 0)
(0.577213 -0.0106956 0)
(0.71221 -0.00859895 0)
(0.58613 -0.0162618 0)
(0.716613 -0.0164804 0)
(0.600704 -0.0227447 0)
(0.726514 -0.0254044 0)
(0.621721 -0.0304147 0)
(0.742542 -0.0357321 0)
(0.650207 -0.0395854 0)
(0.765568 -0.0478818 0)
(0.687448 -0.0505899 0)
(0.796716 -0.062306 0)
(0.734996 -0.0637613 0)
(0.837362 -0.0794821 0)
(0.794663 -0.0793845 0)
(0.889158 -0.0998745 0)
(0.868467 -0.0976158 0)
(0.954027 -0.123849 0)
(0.958519 -0.118363 0)
(1.03412 -0.151553 0)
(1.06683 -0.141118 0)
(1.13168 -0.182736 0)
(1.19497 -0.164745 0)
(1.24889 -0.2165 0)
(1.34365 -0.187224 0)
(1.38753 -0.250993 0)
(1.51193 -0.205457 0)
(1.54837 -0.282969 0)
(1.69642 -0.215234 0)
(1.73043 -0.307634 0)
(1.89045 -0.211443 0)
(1.93011 -0.318633 0)
(2.0831 -0.189041 0)
(2.13951 -0.30811 0)
(2.25963 -0.144775 0)
(2.34605 -0.26932 0)
(2.40278 -0.0795525 0)
(2.53125 -0.199811 0)
(2.49459 -0.000416791 0)
(2.67463 -0.101575 0)
(2.52477 0.0786309 0)
(2.75789 0.00956147 0)
(2.49148 0.149771 0)
(2.77675 0.117878 0)
(2.40017 0.208037 0)
(2.73356 0.213442 0)
(2.25839 0.245677 0)
(2.63455 0.287442 0)
(2.07705 0.261257 0)
(2.49079 0.335243 0)
(1.86784 0.256877 0)
(2.3125 0.357818 0)
(1.64302 0.236603 0)
(2.10922 0.357979 0)
(1.41546 0.205442 0)
(1.89004 0.339379 0)
(1.19973 0.168989 0)
(1.66464 0.305734 0)
(1.00876 0.132414 0)
(1.44736 0.261942 0)
(0.849124 0.0994843 0)
(1.24778 0.213949 0)
(0.721947 0.0718232 0)
(1.07458 0.167558 0)
(0.624864 0.0493663 0)
(0.931493 0.125705 0)
(0.553786 0.0316804 0)
(0.818658 0.0900146 0)
(0.504215 0.0180807 0)
(0.73391 0.0609861 0)
(0.471374 0.00795829 0)
(0.67297 0.0383049 0)
(0.451233 0.00090014 0)
(0.630926 0.0212721 0)
(0.440695 -0.00380823 0)
(0.603835 0.0088971 0)
(0.437094 -0.00684544 0)
(0.588122 8.21845e-05 0)
(0.437966 -0.0086159 0)
(0.580303 -0.00554695 0)
(0.441661 -0.00930096 0)
(0.577771 -0.00895089 0)
(0.446879 -0.00917461 0)
(0.578941 -0.0105209 0)
(0.452715 -0.00859819 0)
(0.58211 -0.0109393 0)
(0.458591 -0.00773848 0)
(0.586335 -0.0105676 0)
(0.464173 -0.00677499 0)
(0.590939 -0.00974084 0)
(0.469243 -0.00580573 0)
(0.595472 -0.00865121 0)
(0.47369 -0.00488422 0)
(0.599711 -0.00747302 0)
(0.477498 -0.00404293 0)
(0.603514 -0.00631916 0)
(0.48069 -0.0032984 0)
(0.606811 -0.00524951 0)
(0.483321 -0.00265722 0)
(0.609602 -0.00429374 0)
(0.48546 -0.00211719 0)
(0.611919 -0.00346748 0)
(0.487178 -0.00166983 0)
(0.613814 -0.00276818 0)
(0.488541 -0.00130404 0)
(0.615342 -0.00218639 0)
(0.489612 -0.00100787 0)
(0.61656 -0.00170884 0)
(0.490443 -0.000769672 0)
(0.617518 -0.00132064 0)
(0.491079 -0.000578769 0)
(0.618262 -0.00100719 0)
(0.491557 -0.000425469 0)
(0.618834 -0.00075414 0)
(0.49191 -0.000301123 0)
(0.619254 -0.00055189 0)
(0.619629 -0.000371803 0)
(1.0395 0.110919 0)
(1.00908 0.0488796 0)
(1.08208 0.157171 0)
(1.04739 0.119916 0)
(1.10321 0.164832 0)
(1.08773 0.149549 0)
(1.10599 0.158988 0)
(1.11088 0.155645 0)
(1.09485 0.147184 0)
(1.11749 0.151343 0)
(1.07304 0.129762 0)
(1.11534 0.139656 0)
(1.04405 0.109259 0)
(1.10332 0.12404 0)
(1.01127 0.0892942 0)
(1.08521 0.107771 0)
(0.978401 0.0718277 0)
(1.06365 0.0916805 0)
(0.948077 0.057042 0)
(1.0413 0.0761847 0)
(0.921395 0.0445077 0)
(1.01959 0.0619658 0)
(0.898673 0.0336039 0)
(0.999638 0.0492578 0)
(0.880122 0.0236653 0)
(0.982083 0.0375056 0)
(0.865942 0.0141833 0)
(0.967494 0.0261282 0)
(0.856282 0.00484396 0)
(0.956364 0.014806 0)
(0.851327 -0.00461471 0)
(0.949022 0.00336408 0)
(0.851308 -0.0147577 0)
(0.94569 -0.00858001 0)
(0.856622 -0.0261059 0)
(0.946807 -0.0217938 0)
(0.867853 -0.0389905 0)
(0.952952 -0.0366352 0)
(0.885748 -0.0539093 0)
(0.964754 -0.0536273 0)
(0.911274 -0.0714296 0)
(0.983036 -0.0734076 0)
(0.945633 -0.0921525 0)
(1.00889 -0.0966655 0)
(0.990294 -0.116688 0)
(1.04355 -0.124143 0)
(1.04703 -0.145584 0)
(1.08865 -0.156614 0)
(1.11792 -0.179206 0)
(1.14615 -0.194737 1.14774e-33)
(1.20529 -0.217545 0)
(1.21842 -0.238922 -1.1179e-33)
(1.31163 -0.259949 0)
(1.30822 -0.289077 0)
(1.43941 -0.304777 0)
(1.4186 -0.344275 0)
(1.59068 -0.348907 0)
(1.55285 -0.402264 0)
(1.7663 -0.387342 0)
(1.71379 -0.458586 0)
(1.96532 -0.413037 0)
(1.90339 -0.50666 0)
(2.18315 -0.416617 0)
(2.12218 -0.536464 0)
(2.40861 -0.388431 0)
(2.36298 -0.533564 0)
(2.62481 -0.322353 0)
(2.60794 -0.485524 0)
(2.81105 -0.218732 0)
(2.82569 -0.386051 0)
(2.943 -0.0887586 0)
(2.99648 -0.233529 0)
(3.01226 0.0509244 0)
(3.09891 -0.059696 0)
(3.01698 0.181633 0)
(3.13614 0.113156 0)
(2.96359 0.291121 0)
(3.10739 0.266836 0)
(2.86289 0.374887 0)
(3.0273 0.388141 0)
(2.72342 0.429651 0)
(2.91081 0.474712 0)
(2.55169 0.456545 0)
(2.76667 0.529548 0)
(2.35401 0.458122 0)
(2.59992 0.555667 0)
(2.1377 0.437457 0)
(2.41442 0.555681 0)
(1.91155 0.397964 0)
(2.21415 0.531888 0)
(1.68617 0.344304 0)
(2.00552 0.487328 0)
(1.4733 0.28324 0)
(1.79628 0.426812 0)
(1.28396 0.221987 0)
(1.59632 0.356899 0)
(1.12513 0.165992 0)
(1.41422 0.284538 0)
(0.998623 0.118281 0)
(1.25821 0.216525 0)
(0.902406 0.07975 0)
(1.13125 0.157203 0)
(0.832287 0.0499422 0)
(1.03247 0.108425 0)
(0.783463 0.027653 0)
(0.958782 0.0700963 0)
(0.75125 0.0115471 0)
(0.906142 0.0411108 0)
(0.731269 0.000437454 0)
(0.870126 0.0200627 0)
(0.720178 -0.00672154 0)
(0.846591 0.00554523 0)
(0.715171 -0.0108422 0)
(0.832165 -0.00394397 0)
(0.714254 -0.0127591 0)
(0.824314 -0.00960362 0)
(0.715867 -0.0131977 0)
(0.820862 -0.0125516 0)
(0.718833 -0.0127382 0)
(0.820171 -0.0135336 0)
(0.72234 -0.0117184 0)
(0.82118 -0.0132474 0)
(0.726047 -0.0103732 0)
(0.823168 -0.0123581 0)
(0.729632 -0.00893574 0)
(0.825533 -0.0110583 0)
(0.73291 -0.00753846 0)
(0.82803 -0.00959705 0)
(0.735793 -0.00624927 0)
(0.830431 -0.00813162 0)
(0.738256 -0.00510404 0)
(0.832614 -0.00675685 0)
(0.740319 -0.00411551 0)
(0.834516 -0.00553052 0)
(0.742016 -0.00327997 0)
(0.836135 -0.0044651 0)
(0.743391 -0.00258565 0)
(0.837481 -0.00356132 0)
(0.74449 -0.00201597 0)
(0.838581 -0.00280778 0)
(0.745357 -0.00155279 0)
(0.839467 -0.00218726 0)
(0.746031 -0.00117768 0)
(0.840168 -0.0016813 0)
(0.746545 -0.000876602 0)
(0.840719 -0.00126804 0)
(0.746936 -0.000619408 0)
(0.841124 -0.000942716 0)
(0.84151 -0.000625901 0)
(1.01972 0.0662403 0)
(1.00421 0.029161 0)
(1.05949 0.112799 0)
(1.02714 0.0801458 0)
(1.09591 0.137933 0)
(1.06421 0.113131 0)
(1.12169 0.145928 0)
(1.09783 0.129858 0)
(1.138 0.14304 0)
(1.1219 0.135041 0)
(1.14541 0.134131 0)
(1.13986 0.132245 0)
(1.14449 0.12284 0)
(1.14907 0.124959 0)
(1.13726 0.110368 0)
(1.15227 0.115001 0)
(1.12616 0.096422 0)
(1.15143 0.102779 0)
(1.11268 0.081495 0)
(1.14633 0.0896606 0)
(1.09775 0.0669016 0)
(1.13875 0.0768984 0)
(1.08291 0.0531729 0)
(1.12996 0.064098 0)
(1.06929 0.0399346 0)
(1.1208 0.0511229 0)
(1.05777 0.0268005 0)
(1.11221 0.0376475 0)
(1.04893 0.0135197 0)
(1.1049 0.0236532 0)
(1.04315 -0.000281537 0)
(1.09937 0.00914363 0)
(1.04095 -0.0152033 0)
(1.09602 -0.00638129 0)
(1.04284 -0.0318289 0)
(1.09548 -0.0236841 0)
(1.04944 -0.0506916 0)
(1.0984 -0.0432412 0)
(1.06149 -0.0724469 0)
(1.10541 -0.0656778 0)
(1.07994 -0.0978597 0)
(1.11722 -0.0918531 0)
(1.10591 -0.127774 0)
(1.1349 -0.122633 0)
(1.14075 -0.163093 0)
(1.15961 -0.158985 0)
(1.18631 -0.204726 1.14774e-33)
(1.19302 -0.202175 0)
(1.24486 -0.253432 3.16027e-35)
(1.23721 -0.253284 1.14774e-33)
(1.3192 -0.309579 -1.1179e-33)
(1.2949 -0.313263 -1.1179e-33)
(1.41275 -0.372837 0)
(1.3696 -0.382627 0)
(1.52948 -0.441687 0)
(1.4657 -0.461009 0)
(1.67374 -0.512465 0)
(1.58875 -0.546517 0)
(1.84948 -0.578939 0)
(1.74454 -0.634327 0)
(2.06081 -0.630788 0)
(1.94105 -0.717988 0)
(2.30657 -0.651771 0)
(2.18524 -0.782224 0)
(2.5694 -0.624783 0)
(2.45948 -0.7964 0)
(2.81894 -0.538683 0)
(2.72607 -0.735064 0)
(3.02096 -0.38849 0)
(2.93985 -0.588069 0)
(3.15816 -0.196112 0)
(3.10366 -0.370724 0)
(3.22427 0.00595387 0)
(3.17081 -0.125807 0)
(3.22272 0.199839 0)
(3.17882 0.114701 0)
(3.16427 0.363655 0)
(3.12953 0.325287 0)
(3.06987 0.486255 0)
(3.04536 0.482539 0)
(2.95103 0.572516 0)
(2.94375 0.59355 0)
(2.81305 0.62723 0)
(2.82865 0.667532 0)
(2.65864 0.652885 0)
(2.70463 0.710082 0)
(2.48962 0.650627 0)
(2.57198 0.724701 0)
(2.30723 0.622363 0)
(2.42207 0.714281 0)
(2.11568 0.571437 0)
(2.25952 0.678873 0)
(1.91965 0.502473 0)
(2.08772 0.622845 0)
(1.72682 0.421363 0)
(1.91262 0.549726 0)
(1.54756 0.336438 0)
(1.74112 0.463797 0)
(1.39101 0.256249 0)
(1.58169 0.37308 0)
(1.26132 0.186264 0)
(1.44158 0.286888 0)
(1.1589 0.128695 0)
(1.32401 0.210852 0)
(1.08142 0.0835184 0)
(1.22961 0.147575 0)
(1.02501 0.0495307 0)
(1.15685 0.0975244 0)
(0.985381 0.0250391 0)
(1.10269 0.0596881 0)
(0.958635 0.00818744 0)
(1.0636 0.0322912 0)
(0.941392 -0.00278671 0)
(1.03628 0.013299 0)
(0.930973 -0.00942369 0)
(1.01786 0.000816357 0)
(0.92526 -0.0128702 0)
(1.00595 -0.00683877 0)
(0.922665 -0.014011 0)
(0.998585 -0.0109388 0)
(0.922087 -0.0138628 0)
(0.994501 -0.0126688 0)
(0.922734 -0.0130156 0)
(0.992635 -0.0130052 0)
(0.924005 -0.0116802 0)
(0.992 -0.0123288 0)
(0.92562 -0.0101484 0)
(0.992259 -0.011212 0)
(0.927309 -0.0086037 0)
(0.992958 -0.00982081 0)
(0.928919 -0.0071529 0)
(0.993891 -0.00836684 0)
(0.93037 -0.00585466 0)
(0.994883 -0.00698133 0)
(0.93163 -0.00472585 0)
(0.995841 -0.00572475 0)
(0.932696 -0.00376673 0)
(0.996708 -0.00462687 0)
(0.933578 -0.00296565 0)
(0.997462 -0.00368967 0)
(0.934294 -0.0023053 0)
(0.998098 -0.00290334 0)
(0.934866 -0.00176377 0)
(0.998622 -0.00225319 0)
(0.935312 -0.00132885 0)
(0.999048 -0.00171405 0)
(0.935662 -0.000946493 0)
(0.999368 -0.00129284 0)
(0.999689 -0.000860423 0)
(1.01044 0.0437897 0)
(1.00232 0.0187226 0)
(1.03615 0.0796276 0)
(1.01544 0.0544333 0)
(1.06752 0.104229 0)
(1.04079 0.0817605 0)
(1.09786 0.118244 0)
(1.07011 0.0995161 0)
(1.12366 0.123489 0)
(1.09734 0.109249 0)
(1.14339 0.122414 0)
(1.12091 0.112514 0)
(1.15719 0.116959 0)
(1.13997 0.111152 0)
(1.16618 0.107791 0)
(1.15446 0.106019 0)
(1.17118 0.0966255 0)
(1.16569 0.0977757 0)
(1.17249 0.0856498 0)
(1.17243 0.0883512 0)
(1.17097 0.0746371 0)
(1.17631 0.0784225 0)
(1.16767 0.0627333 0)
(1.1781 0.0673912 0)
(1.16353 0.0496953 0)
(1.17843 0.0552689 0)
(1.15924 0.0353726 0)
(1.17754 0.0419317 0)
(1.15525 0.0200335 0)
(1.176 0.0276455 0)
(1.15206 0.00368318 0)
(1.1744 0.0123346 0)
(1.15034 -0.0142216 0)
(1.17314 -0.00465771 0)
(1.15079 -0.0343622 0)
(1.17274 -0.024137 0)
(1.15404 -0.0574207 0)
(1.17382 -0.0464888 0)
(1.16068 -0.084233 0)
(1.17695 -0.0723195 0)
(1.17153 -0.115698 0)
(1.18272 -0.102707 0)
(1.18775 -0.152794 0)
(1.19205 -0.138847 0)
(1.21075 -0.196968 0)
(1.20627 -0.181988 0)
(1.2424 -0.249735 0)
(1.2269 -0.233827 0)
(1.28526 -0.312377 0)
(1.25605 -0.296138 0)
(1.34274 -0.386042 0)
(1.29668 -0.370747 0)
(1.41944 -0.471261 0)
(1.35299 -0.459329 0)
(1.52138 -0.56728 0)
(1.43078 -0.562948 0)
(1.65612 -0.670904 0)
(1.53833 -0.681254 0)
(1.83273 -0.776646 0)
(1.6853 -0.810937 0)
(2.06447 -0.871538 0)
(1.89029 -0.949725 0)
(2.34452 -0.928953 0)
(2.15376 -1.06227 0)
(2.62549 -0.916157 0)
(2.41594 -1.07737 0)
(2.86661 -0.80499 0)
(2.6389 -0.976183 0)
(3.03442 -0.591524 0)
(2.75642 -0.755876 0)
(3.11936 -0.314214 0)
(2.77765 -0.455671 0)
(3.12668 -0.0299245 0)
(2.72578 -0.133124 0)
(3.07891 0.224007 0)
(2.66473 0.162467 0)
(2.99933 0.426711 0)
(2.61623 0.404865 0)
(2.91249 0.573485 0)
(2.57318 0.569387 0)
(2.8179 0.675063 0)
(2.53727 0.688138 0)
(2.71946 0.739467 0)
(2.49883 0.765974 0)
(2.61614 0.774021 0)
(2.4541 0.813399 0)
(2.50326 0.783757 0)
(2.39849 0.837581 0)
(2.37344 0.767966 0)
(2.32142 0.844105 0)
(2.23198 0.728406 0)
(2.22598 0.820334 0)
(2.08086 0.669495 0)
(2.11187 0.773965 0)
(1.92703 0.593036 0)
(1.98986 0.703551 0)
(1.77581 0.502304 0)
(1.85994 0.615019 0)
(1.63301 0.405791 0)
(1.7299 0.515877 0)
(1.50471 0.313164 0)
(1.60726 0.415192 0)
(1.39491 0.230954 0)
(1.49782 0.320653 0)
(1.30515 0.162445 0)
(1.40424 0.23733 0)
(1.23459 0.108289 0)
(1.32731 0.168089 0)
(1.18091 0.0673769 0)
(1.26603 0.113368 0)
(1.14127 0.0377266 0)
(1.21856 0.0719292 0)
(1.11279 0.0171384 0)
(1.18273 0.0417772 0)
(1.09288 0.00355259 0)
(1.15639 0.0207315 0)
(1.07934 -0.00484129 0)
(1.13743 0.00669859 0)
(1.07051 -0.00955449 0)
(1.12414 -0.00211241 0)
(1.06512 -0.0117614 0)
(1.11515 -0.00727248 0)
(1.06196 -0.0122886 0)
(1.10928 -0.00984518 0)
(1.06031 -0.01185 0)
(1.10554 -0.0106787 0)
(1.05965 -0.0108752 0)
(1.10333 -0.0105495 0)
(1.05958 -0.00957149 0)
(1.10211 -0.00975894 0)
(1.05989 -0.00818769 0)
(1.10155 -0.0086721 0)
(1.06038 -0.00684906 0)
(1.1014 -0.00747551 0)
(1.06094 -0.00562621 0)
(1.10149 -0.00628349 0)
(1.06149 -0.00455167 0)
(1.10172 -0.00517715 0)
(1.062 -0.00362984 0)
(1.102 -0.00419409 0)
(1.06244 -0.00285391 0)
(1.10228 -0.00334446 0)
(1.06281 -0.00220621 0)
(1.10254 -0.0026265 0)
(1.06312 -0.00168069 0)
(1.10278 -0.00201909 0)
(1.06336 -0.00120892 0)
(1.10296 -0.00154071 0)
(1.10316 -0.00103197 0)
(1.00594 0.0302183 0)
(1.00138 0.0127795 0)
(1.02222 0.0567612 0)
(1.00942 0.0381563 0)
(1.04474 0.0769199 0)
(1.0263 0.0592433 0)
(1.06974 0.0904304 0)
(1.04805 0.0745109 0)
(1.09461 0.0981621 0)
(1.07105 0.084387 0)
(1.11745 0.101102 0)
(1.09347 0.0896684 0)
(1.13741 0.100076 0)
(1.11433 0.091193 0)
(1.15394 0.09579 0)
(1.13294 0.0894911 0)
(1.1667 0.0891636 0)
(1.14885 0.0850181 0)
(1.17629 0.0810114 0)
(1.16171 0.0787568 0)
(1.18349 0.0714368 0)
(1.17212 0.0712259 0)
(1.18872 0.060324 0)
(1.18046 0.0621603 0)
(1.19227 0.0479339 0)
(1.18699 0.0517194 0)
(1.19427 0.0346662 0)
(1.19171 0.0399272 0)
(1.19514 0.0204499 0)
(1.19465 0.0267755 0)
(1.19536 0.00452764 0)
(1.19647 0.0121128 0)
(1.19536 -0.0139131 0)
(1.19746 -0.00465637 0)
(1.19559 -0.0353914 0)
(1.1977 -0.0243644 0)
(1.19647 -0.060319 0)
(1.19768 -0.0473721 0)
(1.19858 -0.0895017 0)
(1.19781 -0.0744237 0)
(1.20265 -0.124412 0)
(1.19853 -0.106781 0)
(1.20978 -0.166595 0)
(1.20049 -0.14597 0)
(1.22131 -0.217475 0)
(1.2047 -0.193517 0)
(1.23893 -0.278964 0)
(1.21239 -0.251453 0)
(1.2652 -0.353436 0)
(1.22547 -0.322407 0)
(1.30383 -0.443332 0)
(1.24683 -0.409374 0)
(1.36027 -0.550968 0)
(1.2809 -0.515765 0)
(1.44249 -0.677928 0)
(1.33444 -0.645178 0)
(1.5619 -0.823844 0)
(1.41799 -0.800661 0)
(1.73441 -0.988247 0)
(1.54552 -0.983442 0)
(1.97954 -1.1511 0)
(1.74087 -1.19486 0)
(2.23717 -1.2394 0)
(1.96679 -1.3199 0)
(2.43763 -1.19707 0)
(2.06997 -1.27783 0)
(2.55919 -1.02425 0)
(2.00458 -1.09774 -2.44869e-19)
(2.52768 -0.728707 0)
(1.77365 -0.724367 5.47489e-19)
(2.38066 -0.359565 0)
(1.4573 -0.308652 7.60098e-17)
(2.25675 0.00564906 0)
(1.20082 -0.00921421 -2.75751e-32)
(2.19451 0.312197 0)
(1.24994 0.224709 0)
(2.16796 0.524038 0)
(1.36803 0.431411 2.32233e-18)
(2.19039 0.662649 0)
(1.41543 0.546959 0)
(2.21461 0.760119 0)
(1.55619 0.663912 0)
(2.234 0.823816 0)
(1.68709 0.74659 0)
(2.23579 0.864247 0)
(1.80563 0.811608 0)
(2.21547 0.887979 0)
(1.8868 0.857898 0)
(2.17219 0.890072 0)
(1.92893 0.887391 0)
(2.10663 0.862071 0)
(1.93431 0.88589 0)
(2.02127 0.805194 0)
(1.90601 0.85933 0)
(1.92219 0.724218 0)
(1.85872 0.802631 0)
(1.81476 0.628999 0)
(1.7906 0.722442 0)
(1.70539 0.52652 0)
(1.7108 0.625249 0)
(1.60127 0.424272 0)
(1.62667 0.519314 0)
(1.50769 0.328711 0)
(1.54492 0.414233 0)
(1.4268 0.244552 0)
(1.47031 0.318225 0)
(1.359 0.174476 0)
(1.40521 0.235882 0)
(1.30378 0.118905 0)
(1.35028 0.16859 0)
(1.26006 0.0766957 0)
(1.30522 0.115647 0)
(1.22635 0.0458839 0)
(1.26915 0.0754885 0)
(1.20097 0.0242538 0)
(1.24094 0.0461147 0)
(1.18227 0.00968447 0)
(1.21934 0.0253999 0)
(1.16882 0.000348701 0)
(1.20314 0.0113324 0)
(1.15937 -0.00521293 0)
(1.19127 0.00218413 0)
(1.15289 -0.00813475 0)
(1.18275 -0.00336917 0)
(1.1486 -0.00931609 0)
(1.17678 -0.00639428 0)
(1.14582 -0.00940692 0)
(1.17267 -0.00776592 0)
(1.1441 -0.00884774 0)
(1.16992 -0.00803394 0)
(1.14308 -0.00794793 0)
(1.1681 -0.00765391 0)
(1.14253 -0.00689821 0)
(1.16693 -0.00692596 0)
(1.14229 -0.00582677 0)
(1.16622 -0.00604167 0)
(1.14223 -0.00481649 0)
(1.1658 -0.00512439 0)
(1.14229 -0.0039086 0)
(1.16559 -0.00424696 0)
(1.14239 -0.00311842 0)
(1.16549 -0.00344821 0)
(1.14251 -0.00244129 0)
(1.16547 -0.00274843 0)
(1.14263 -0.00188051 0)
(1.16549 -0.0021388 0)
(1.14274 -0.0013647 0)
(1.16552 -0.00164797 0)
(1.16557 -0.00111193 0)
(1.00372 0.0214068 0)
(1.0009 0.00905955 0)
(1.01456 0.0409751 0)
(1.00626 0.0273156 0)
(1.0306 0.0568007 0)
(1.018 0.0432073 0)
(1.04965 0.0682967 0)
(1.034 0.0554573 0)
(1.07001 0.0757258 0)
(1.05205 0.0640278 0)
(1.0904 0.0796162 0)
(1.07081 0.0692827 0)
(1.10994 0.0804727 0)
(1.08948 0.0716455 0)
(1.12794 0.0787015 0)
(1.1074 0.0714927 0)
(1.1438 0.0747764 0)
(1.12397 0.0691612 0)
(1.15746 0.0691482 0)
(1.13877 0.0650904 0)
(1.16914 0.0620288 0)
(1.15179 0.0595543 0)
(1.17874 0.0535151 0)
(1.16306 0.0525523 0)
(1.18635 0.0435682 0)
(1.17238 0.0441141 0)
(1.19204 0.0320034 0)
(1.17993 0.0342363 0)
(1.19599 0.0187011 0)
(1.18544 0.0228294 0)
(1.19849 0.00338617 0)
(1.18922 0.00961152 0)
(1.19972 -0.0145174 0)
(1.1914 -0.00588571 0)
(1.19972 -0.0356409 0)
(1.19181 -0.0243686 0)
(1.19883 -0.060696 0)
(1.19064 -0.0464769 0)
(1.19742 -0.0907823 0)
(1.18798 -0.0730171 0)
(1.19593 -0.127228 0)
(1.18399 -0.105285 0)
(1.19476 -0.171526 0)
(1.17891 -0.144801 0)
(1.19472 -0.225827 0)
(1.17308 -0.193484 0)
(1.19727 -0.292942 0)
(1.16726 -0.254004 0)
(1.2046 -0.376215 0)
(1.16275 -0.329732 2.04033e-32)
(1.22022 -0.479727 0)
(1.16178 -0.424998 -2.00271e-32)
(1.24981 -0.608337 0)
(1.16818 -0.54535 0)
(1.30238 -0.767383 0)
(1.18847 -0.69775 0)
(1.39206 -0.962222 0)
(1.23319 -0.890341 0)
(1.53904 -1.19828 0)
(1.3175 -1.13041 0)
(1.73768 -1.38535 0)
(1.44755 -1.3935 0)
(1.82308 -1.39816 0)
(1.46225 -1.4053 0)
(1.64564 -1.1616 -2.44869e-19)
(1.16982 -1.10039 0)
(1.24681 -0.706247 3.0262e-19)
(0.647013 -0.491856 -8.29293e-19)
(0.772884 -0.250028 7.65573e-17)
(0.493496 -0.16071 5.47489e-19)
(0.287691 -0.0255985 7.60098e-17)
(0.231254 -0.492111 7.60098e-17)
(0.209207 0.0311728 -2.75751e-32)
(0.0430569 -0.655577 -2.75751e-32)
(0.423805 0.134672 2.32233e-18)
(0.143021 -0.791235 0)
(0.525116 0.304925 2.32233e-18)
(0.276926 -0.950604 2.32233e-18)
(0.763611 0.48635 0)
(0.204648 0.22043 0)
(1.02308 0.628142 0)
(0.444085 0.40444 0)
(1.26326 0.721347 0)
(0.646958 0.50641 0)
(1.45938 0.795891 0)
(0.908248 0.615486 0)
(1.5991 0.850132 0)
(1.13487 0.718179 0)
(1.6885 0.877676 0)
(1.30967 0.797997 0)
(1.73318 0.879451 0)
(1.42891 0.841205 0)
(1.74406 0.85473 0)
(1.5008 0.848451 0)
(1.72675 0.798629 0)
(1.54048 0.819947 0)
(1.68725 0.716266 0)
(1.55208 0.761936 0)
(1.63325 0.616788 0)
(1.54147 0.679248 0)
(1.57154 0.509467 0)
(1.51471 0.581025 0)
(1.50856 0.404786 0)
(1.47798 0.477212 0)
(1.44955 0.310779 0)
(1.43747 0.377237 0)
(1.39697 0.231129 0)
(1.39759 0.288459 0)
(1.35195 0.16634 0)
(1.36067 0.213614 0)
(1.31441 0.115292 0)
(1.32811 0.153187 0)
(1.28378 0.0763968 0)
(1.30027 0.106115 0)
(1.25932 0.0477695 0)
(1.27714 0.0705741 0)
(1.2402 0.0274054 0)
(1.25841 0.0445221 0)
(1.22559 0.0134197 0)
(1.24359 0.0259448 0)
(1.21467 0.00421293 0)
(1.2321 0.0131043 0)
(1.20663 -0.00150045 0)
(1.22335 0.00466626 0)
(1.20085 -0.00474796 0)
(1.21684 -0.000614318 0)
(1.19678 -0.00631564 0)
(1.21205 -0.00368648 0)
(1.19393 -0.00679006 0)
(1.20858 -0.00518457 0)
(1.19197 -0.00660531 0)
(1.20609 -0.0056937 0)
(1.19063 -0.00605488 0)
(1.20431 -0.00559342 0)
(1.18974 -0.0053289 0)
(1.20305 -0.00515324 0)
(1.18917 -0.00454655 0)
(1.20217 -0.00454707 0)
(1.1888 -0.00378084 0)
(1.20157 -0.00388318 0)
(1.18858 -0.00307505 0)
(1.20116 -0.00322685 0)
(1.18845 -0.00244484 0)
(1.20088 -0.00261969 0)
(1.18838 -0.00190685 0)
(1.2007 -0.00206827 0)
(1.18835 -0.00139717 0)
(1.20059 -0.00161267 0)
(1.20048 -0.00109854 0)
(1.00257 0.0153799 0)
(1.00065 0.0064882 0)
(1.01027 0.0297813 0)
(1.00451 0.0196214 0)
(1.02208 0.0418874 0)
(1.01316 0.0313978 0)
(1.03669 0.0510985 0)
(1.02531 0.0408454 0)
(1.05297 0.0574445 0)
(1.03956 0.0477483 0)
(1.06999 0.061168 0)
(1.05496 0.0522592 0)
(1.08703 0.0625481 0)
(1.07081 0.0546076 0)
(1.1035 0.0618635 0)
(1.0866 0.0550228 0)
(1.11894 0.0594143 0)
(1.10179 0.0537222 0)
(1.13308 0.0554634 0)
(1.11601 0.0509518 0)
(1.14575 0.050114 0)
(1.12902 0.0468791 0)
(1.15677 0.043364 0)
(1.14066 0.0415371 0)
(1.16597 0.0351807 0)
(1.15068 0.0349071 0)
(1.1733 0.0254914 0)
(1.15895 0.026911 0)
(1.17869 0.0141064 0)
(1.16531 0.0174393 0)
(1.18212 0.000659987 0)
(1.16964 0.00618464 0)
(1.18353 -0.0153747 0)
(1.1718 -0.00729772 0)
(1.18275 -0.0346908 0)
(1.17157 -0.0235947 0)
(1.1797 -0.0581202 0)
(1.16869 -0.0434247 0)
(1.17438 -0.0867039 0)
(1.16293 -0.0676902 0)
(1.16671 -0.121859 0)
(1.15403 -0.0976195 0)
(1.15673 -0.165465 0)
(1.14171 -0.134826 0)
(1.14471 -0.21999 0)
(1.12574 -0.181462 0)
(1.1312 -0.288716 2.04033e-32)
(1.106 -0.240492 0)
(1.1174 -0.376029 4.13573e-34)
(1.08268 -0.315926 2.04033e-32)
(1.10566 -0.487794 -2.00271e-32)
(1.05659 -0.413265 -2.00271e-32)
(1.1004 -0.631804 0)
(1.02973 -0.540088 0)
(1.10936 -0.818107 0)
(1.00642 -0.70671 0)
(1.14495 -1.05682 0)
(0.994072 -0.925925 0)
(1.21499 -1.32271 0)
(1.00538 -1.20045 0)
(1.19744 -1.4073 0)
(0.977414 -1.37595 0)
(0.815918 -1.04851 0)
(0.609761 -1.02378 0)
(0.341687 -0.450736 -5.84424e-19)
(0.27285 0.0159235 0)
(0.274138 -0.0820207 -5.84424e-19)
(-0.0957008 0.216996 -5.84424e-19)
(0.114622 0 0)
(0 -0.118813 0)
(0.0600894 0 0)
(0 -0.0193728 0)
(0.0280967 0 0)
(0 -0.00176777 0)
(0.00508346 0 0)
(0 -0.00319759 0)
(0.310471 0.0471537 0)
(0 0.0128573 0)
(-0.135334 0.157132 0)
(-0.118994 -0.455588 0)
(0.0306476 0.285881 0)
(-0.21493 0.112212 -1.77834e-17)
(0.302351 0.415325 0)
(-0.0714273 0.234706 -1.88264e-16)
(0.591024 0.544827 0)
(0.142578 0.326814 0)
(0.845705 0.666498 0)
(0.404772 0.463497 0)
(1.04722 0.758455 0)
(0.642506 0.596484 0)
(1.19339 0.807121 0)
(0.836736 0.695036 0)
(1.29688 0.812281 0)
(0.987445 0.744959 0)
(1.36607 0.783525 0)
(1.10427 0.750754 0)
(1.40676 0.725862 0)
(1.19241 0.72125 0)
(1.42404 0.64427 0)
(1.25434 0.661965 0)
(1.42272 0.549082 0)
(1.29351 0.582345 0)
(1.40835 0.449737 0)
(1.31417 0.491579 0)
(1.38667 0.355168 0)
(1.32076 0.398924 0)
(1.36198 0.271514 0)
(1.31803 0.31315 0)
(1.33724 0.201204 0)
(1.30966 0.238348 0)
(1.31419 0.144732 0)
(1.29854 0.176236 0)
(1.29373 0.100891 0)
(1.28651 0.126582 0)
(1.27625 0.0677921 0)
(1.27483 0.0880554 0)
(1.26177 0.0434285 0)
(1.26417 0.0589935 0)
(1.25007 0.0259152 0)
(1.25492 0.0376467 0)
(1.24077 0.0137656 0)
(1.24712 0.0224026 0)
(1.23352 0.00569236 0)
(1.24068 0.0119174 0)
(1.22802 0.000550612 0)
(1.23554 0.00488467 0)
(1.22385 -0.0024734 0)
(1.23144 0.000483342 0)
(1.22074 -0.00402922 0)
(1.22829 -0.00206577 0)
(1.21843 -0.00463663 0)
(1.22583 -0.00338761 0)
(1.21673 -0.00466027 0)
(1.22395 -0.0038903 0)
(1.21548 -0.00435132 0)
(1.2225 -0.00390766 0)
(1.21458 -0.00387053 0)
(1.22141 -0.00364326 0)
(1.21393 -0.00332003 0)
(1.22058 -0.00323237 0)
(1.21346 -0.00276513 0)
(1.21997 -0.00276172 0)
(1.21313 -0.00223903 0)
(1.21952 -0.00228974 0)
(1.2129 -0.00177191 0)
(1.21918 -0.00183635 0)
(1.21274 -0.00131341 0)
(1.21895 -0.00145083 0)
(1.21872 -0.00099816 0)
(1.00192 0.0109818 0)
(1.0005 0.00456526 0)
(1.00772 0.0214117 0)
(1.00348 0.0138216 0)
(1.01684 0.030411 0)
(1.01021 0.022279 0)
(1.02843 0.0374733 0)
(1.01989 0.0292528 0)
(1.04168 0.0425094 0)
(1.03152 0.0345008 0)
(1.05589 0.0456287 0)
(1.04438 0.0380491 0)
(1.07049 0.0470006 0)
(1.05792 0.0400134 0)
(1.08496 0.046799 0)
(1.07168 0.0405463 0)
(1.0989 0.0451949 0)
(1.0852 0.0397861 0)
(1.11199 0.0423384 0)
(1.0981 0.0378653 0)
(1.12398 0.0383049 0)
(1.11012 0.0348894 0)
(1.13463 0.0330956 0)
(1.121 0.0308833 0)
(1.14372 0.0266655 0)
(1.13049 0.0258157 0)
(1.15103 0.0189163 0)
(1.13834 0.0196039 0)
(1.15633 0.0096187 0)
(1.14429 0.0121372 0)
(1.1594 -0.00159591 0)
(1.1481 0.00311506 0)
(1.15994 -0.0152192 0)
(1.1494 -0.00784277 0)
(1.15761 -0.0318879 0)
(1.1478 -0.0212593 0)
(1.15199 -0.0523951 0)
(1.14281 -0.0378023 0)
(1.14263 -0.0777859 0)
(1.13383 -0.0583296 0)
(1.12899 -0.109472 0)
(1.12018 -0.0839827 0)
(1.11047 -0.149359 0)
(1.10099 -0.11631 0)
(1.08645 -0.200059 0)
(1.07529 -0.157439 0)
(1.05631 -0.265195 0)
(1.04188 -0.210346 0)
(1.01964 -0.349851 0)
(0.999473 -0.279254 2.86259e-33)
(0.976588 -0.461246 0)
(0.946751 -0.370217 -2.85217e-33)
(0.928559 -0.609634 0)
(0.88268 -0.492057 0)
(0.879321 -0.808696 0)
(0.806943 -0.657472 0)
(0.835039 -1.0633 0)
(0.722941 -0.881643 0)
(0.767942 -1.25152 0)
(0.620769 -1.13336 0)
(0.443259 -0.981289 0)
(0.35359 -1.05126 -9.21386e-17)
(0.750401 -0.331671 0)
(-0.143082 -0.435814 0)
(0.72885 0 0)
(0 0.354534 0)
(0.0177171 0 0)
(0 -0.142685 0)
(0.00293764 0 0)
(0 -0.00200259 0)
(6.76224e-06 0 0)
(0 2.38917e-05 0)
(2.01866e-05 0 0)
(0 1.11174e-07 0)
(5.99719e-05 0 0)
(0 1.28637e-06 0)
(-0.0246884 0 0)
(0 -0.00324653 0)
(0.0298291 0.0178644 -1.77834e-17)
(0 0.00524835 0)
(-0.386504 0.0723102 -2.06047e-16)
(-0.205262 -0.253635 -1.77834e-17)
(-0.253181 0.149361 -1.88264e-16)
(-0.370999 0.0652495 -1.88264e-16)
(-0.0364442 0.259891 0)
(-0.277244 0.110077 0)
(0.204481 0.405596 0)