/*--------------------------------*- C++ -*----------------------------------*\
| =========                 |                                                 |
| \\      /  F ield         | OpenFOAM: The Open Source CFD Toolbox           |
|  \\    /   O peration     | Version:  2206                                  |
|   \\  /    A nd           | Website:  www.openfoam.com                      |
|    \\/     M anipulation  |                                                 |
\*---------------------------------------------------------------------------*/
FoamFile
{
    version     2.0;
    format      ascii;
    arch        "LSB;label=32;scalar=64";
    class       volScalarField;
    location    "0.1";
    object      epsilon;
}
// * * * * * * * * * * * * * * * * * * * * * * * * * * * * * * * * * * * * * //

dimensions      [0 2 -3 0 0 0 0];

internalField   nonuniform List<scalar> 
1875
(
0.000256729
0.000346203
0.000458191
0.000586288
0.000645001
0.000667658
0.00067205
0.000668475
0.000662347
0.000655926
0.000649848
0.00064406
0.000638286
0.000632179
0.000625376
0.000617507
0.000608183
0.000597001
0.000583593
0.000567691
0.000549242
0.000528456
0.000505963
0.000482975
0.000461163
0.000442434
0.000428491
0.000420567
0.000419152
0.000424077
0.000434793
0.000450291
0.000469173
0.000489929
0.000511166
0.000531754
0.000550844
0.000567911
0.000582715
0.000595252
0.000605666
0.000614181
0.000621054
0.000626541
0.000630885
0.0006343
0.00063697
0.000639048
0.00064066
0.000641906
0.000642869
0.000643612
0.000644184
0.000644624
0.000644962
0.000645222
0.000645421
0.000645574
0.000645691
0.000645781
0.00064585
0.000645902
0.000645943
0.000645974
0.000645997
0.000646015
0.000646029
0.00064604
0.000646048
0.000646054
0.000646059
0.000646063
0.000646073
0.00064612
0.000646317
0.00020138
0.00020768
0.000220952
0.000238604
0.000251891
0.000260295
0.00026493
0.000267015
0.000267566
0.00026732
0.000266724
0.000266003
0.000265237
0.000264438
0.000263573
0.00026259
0.000261417
0.000259961
0.00025811
0.000255711
0.000252617
0.000248681
0.0002438
0.00023814
0.000232013
0.000226045
0.000220935
0.000217379
0.000215839
0.000216242
0.000218391
0.000221905
0.000226291
0.00023106
0.000235824
0.000240336
0.000244455
0.000248108
0.000251265
0.000253936
0.000256162
0.000257992
0.000259481
0.000260682
0.000261644
0.000262409
0.000263013
0.000263488
0.00026386
0.000264151
0.000264377
0.000264552
0.000264689
0.000264794
0.000264876
0.000264939
0.000264988
0.000265025
0.000265054
0.000265077
0.000265094
0.000265107
0.000265117
0.000265125
0.000265131
0.000265136
0.000265139
0.000265142
0.000265144
0.000265146
0.000265147
0.000265149
0.000265162
0.000265288
0.000266459
0.000191236
0.000183366
0.000179351
0.000178151
0.000177917
0.000177913
0.000177955
0.000178001
0.000178023
0.00017802
0.000178001
0.000177986
0.000177988
0.000178015
0.000178071
0.000178158
0.000178275
0.000178412
0.000178554
0.000178657
0.000178651
0.00017842
0.000177815
0.000176788
0.000175315
0.000173585
0.0001718
0.000170359
0.000169608
0.00016963
0.000170285
0.000171338
0.000172453
0.000173438
0.000174221
0.000174844
0.000175335
0.00017572
0.000176027
0.000176277
0.000176484
0.000176657
0.000176802
0.000176923
0.000177023
0.000177106
0.000177173
0.000177228
0.000177272
0.000177307
0.000177336
0.000177358
0.000177375
0.000177389
0.0001774
0.000177408
0.000177415
0.00017742
0.000177424
0.000177427
0.000177429
0.000177431
0.000177432
0.000177434
0.000177434
0.000177435
0.000177436
0.000177436
0.000177436
0.000177436
0.000177437
0.000177437
0.000177441
0.000177476
0.000177787
0.000188345
0.000178275
0.000171839
0.00016803
0.000165813
0.000164621
0.000163959
0.000163604
0.000163418
0.00016332
0.000163274
0.000163266
0.000163289
0.000163341
0.000163426
0.00016355
0.000163721
0.000163945
0.000164237
0.000164608
0.000165038
0.000165439
0.000165625
0.00016545
0.000164898
0.000164049
0.000163055
0.000162152
0.000161517
0.000161363
0.000161839
0.000162758
0.000163671
0.000164273
0.000164506
0.000164463
0.00016427
0.000164026
0.000163793
0.000163597
0.000163445
0.00016333
0.000163242
0.000163179
0.000163134
0.000163103
0.000163082
0.000163068
0.000163059
0.000163053
0.000163049
0.000163046
0.000163044
0.000163043
0.000163042
0.000163042
0.000163041
0.000163041
0.000163041
0.000163041
0.000163041
0.000163041
0.000163041
0.000163041
0.000163041
0.00016304
0.00016304
0.00016304
0.00016304
0.00016304
0.00016304
0.00016304
0.00016304
0.000163041
0.000163054
0.000187489
0.000176863
0.000170119
0.000166119
0.000163825
0.000162536
0.000161822
0.000161433
0.000161225
0.000161118
0.000161069
0.000161053
0.000161062
0.000161093
0.00016115
0.000161242
0.000161381
0.000161592
0.000161902
0.000162334
0.000162846
0.000163161
0.000162667
0.000161189
0.0001591
0.000157434
0.000156601
0.000156032
0.000154818
0.00015364
0.000153984
0.000156294
0.000159046
0.000161163
0.000162348
0.000162746
0.000162672
0.000162391
0.000162067
0.000161779
0.000161549
0.000161377
0.000161253
0.000161165
0.000161103
0.00016106
0.00016103
0.000161009
0.000160994
0.000160984
0.000160976
0.00016097
0.000160966
0.000160963
0.000160961
0.000160959
0.000160958
0.000160957
0.000160956
0.000160956
0.000160955
0.000160955
0.000160955
0.000160955
0.000160955
0.000160954
0.000160954
0.000160954
0.000160954
0.000160954
0.000160954
0.000160954
0.000160953
0.000160945
0.000160895
0.000187186
0.000176391
0.000169568
0.000165567
0.000163326
0.000162101
0.000161438
0.000161081
0.000160892
0.000160794
0.000160747
0.000160731
0.000160737
0.000160764
0.000160816
0.000160904
0.000161048
0.000161279
0.000161632
0.000162094
0.000162332
0.000161021
0.000155593
0.000146965
0.000136901
0.000131424
0.000134073
0.000138609
0.000137477
0.000131338
0.000128589
0.000135949
0.000145102
0.000152781
0.000157944
0.000160653
0.000161732
0.000161949
0.000161804
0.000161559
0.000161326
0.000161139
0.000161
0.000160902
0.000160833
0.000160786
0.000160753
0.00016073
0.000160714
0.000160703
0.000160695
0.000160689
0.000160684
0.000160681
0.000160679
0.000160677
0.000160676
0.000160675
0.000160674
0.000160674
0.000160673
0.000160673
0.000160673
0.000160672
0.000160672
0.000160672
0.000160672
0.000160672
0.000160672
0.000160672
0.000160672
0.000160672
0.00016067
0.000160661
0.000160599
0.000187048
0.000176183
0.000169333
0.000165337
0.000163129
0.000161946
0.000161323
0.000160997
0.000160827
0.00016074
0.000160699
0.000160686
0.000160694
0.000160723
0.000160778
0.000160876
0.000161039
0.000161303
0.000161676
0.00016189
0.000160392
0.000152447
0.000130787
0.000103142
6.88109e-05
4.31484e-05
6.97366e-05
0.000109591
0.000118228
7.95327e-05
4.67985e-05
8.3032e-05
0.000107964
0.000129706
0.000145571
0.000154596
0.000158995
0.000160806
0.000161363
0.0001614
0.000161269
0.000161112
0.000160979
0.000160878
0.000160806
0.000160755
0.00016072
0.000160696
0.000160679
0.000160667
0.000160659
0.000160653
0.000160648
0.000160645
0.000160643
0.000160641
0.00016064
0.000160638
0.000160638
0.000160637
0.000160637
0.000160636
0.000160636
0.000160636
0.000160636
0.000160636
0.000160635
0.000160635
0.000160635
0.000160635
0.000160635
0.000160635
0.000160634
0.000160625
0.000160561
0.000186975
0.000176073
0.00016921
0.000165219
0.000163028
0.00016187
0.000161271
0.000160964
0.000160808
0.00016073
0.000160695
0.000160686
0.000160697
0.000160729
0.000160791
0.000160899
0.000161082
0.000161359
0.000161577
0.000160557
0.000153433
0.000131314
9.35254e-05
3.09247e-05
8.13758e-05
0.0002
0.0002
0.0002
0.0002
0.0002
0.0002
9.19028e-05
3.73638e-05
8.79993e-05
0.000121926
0.000142728
0.000153357
0.000158271
0.000160284
0.000160967
0.000161105
0.000161055
0.00016096
0.000160872
0.000160803
0.000160752
0.000160717
0.000160692
0.000160675
0.000160663
0.000160654
0.000160648
0.000160644
0.00016064
0.000160638
0.000160636
0.000160635
0.000160634
0.000160633
0.000160633
0.000160632
0.000160632
0.000160631
0.000160631
0.000160631
0.000160631
0.000160631
0.000160631
0.000160631
0.000160631
0.000160631
0.000160631
0.000160629
0.00016062
0.000160556
0.000186932
0.000176008
0.000169138
0.00016515
0.000162969
0.000161825
0.000161242
0.000160948
0.000160802
0.000160731
0.000160701
0.000160695
0.000160709
0.000160745
0.000160813
0.000160932
0.000161123
0.000161335
0.000160954
0.000156545
0.000136943
9.77513e-05
7.58564e-05
8.84595e-05
0.0002
0.0002
0.0002
0.0002
0.0002
0.0002
0.0002
0.0002
0.000122099
3.37004e-05
9.33675e-05
0.000127348
0.000145593
0.000154555
0.00015859
0.000160226
0.000160793
0.000160926
0.000160908
0.00016085
0.000160792
0.000160747
0.000160713
0.000160689
0.000160673
0.000160661
0.000160653
0.000160647
0.000160642
0.000160639
0.000160637
0.000160635
0.000160634
0.000160633
0.000160632
0.000160632
0.000160631
0.000160631
0.000160631
0.000160631
0.000160631
0.00016063
0.00016063
0.00016063
0.00016063
0.00016063
0.00016063
0.00016063
0.000160629
0.000160619
0.000160555
0.000186906
0.000175967
0.000169093
0.000165107
0.000162933
0.000161798
0.000161224
0.000160939
0.000160801
0.000160736
0.000160709
0.000160707
0.000160724
0.000160764
0.000160837
0.000160959
0.000161131
0.000161139
0.000159566
0.000150256
0.00011972
7.00903e-05
5.54021e-05
0.0002
0.0002
0.0002
0.0002
0.0002
0.0002
0.0002
0.0002
0.0002
0.0002
7.64136e-05
8.77559e-05
0.000116207
0.00013836
0.000150605
0.000156627
0.000159305
0.000160376
0.000160741
0.000160824
0.000160809
0.000160771
0.000160734
0.000160705
0.000160683
0.000160668
0.000160657
0.00016065
0.000160645
0.000160641
0.000160638
0.000160636
0.000160635
0.000160633
0.000160633
0.000160632
0.000160632
0.000160631
0.000160631
0.000160631
0.000160631
0.00016063
0.00016063
0.00016063
0.00016063
0.00016063
0.00016063
0.00016063
0.00016063
0.000160629
0.000160619
0.000160555
0.00018689
0.000175942
0.000169065
0.00016508
0.000162909
0.000161781
0.000161213
0.000160934
0.000160801
0.00016074
0.000160717
0.000160717
0.000160737
0.000160779
0.000160856
0.000160978
0.000161101
0.00016072
0.000156945
0.000139756
0.000101517
7.68666e-05
0.000115038
0.0002
0.0002
0.0002
0.0002
0.0002
0.0002
0.0002
0.0002
0.0002
0.0002
0.000194271
3.34361e-05
9.49637e-05
0.000129338
0.000146528
0.00015475
0.000158445
0.000159982
0.000160557
0.000160735
0.000160763
0.000160745
0.000160717
0.000160693
0.000160675
0.000160662
0.000160652
0.000160646
0.000160642
0.000160639
0.000160636
0.000160635
0.000160634
0.000160633
0.000160632
0.000160632
0.000160631
0.000160631
0.000160631
0.000160631
0.00016063
0.00016063
0.00016063
0.00016063
0.00016063
0.00016063
0.00016063
0.00016063
0.00016063
0.000160629
0.000160619
0.000160555
0.000186881
0.000175927
0.000169048
0.000165064
0.000162896
0.00016177
0.000161206
0.000160931
0.000160801
0.000160742
0.000160722
0.000160724
0.000160745
0.00016079
0.000160869
0.000160998
0.000161133
0.000160798
0.000157386
0.000142761
0.000104603
3.71369e-05
0.0002
0.0002
0.0002
0.0002
0.0002
0.0002
0.0002
0.0002
0.0002
0.0002
0.0002
0.0002
4.47623e-05
9.51945e-05
0.000127405
0.000144887
0.00015375
0.000157911
0.000159713
0.000160422
0.000160663
0.000160722
0.000160719
0.000160699
0.00016068
0.000160665
0.000160654
0.000160647
0.000160642
0.000160638
0.000160636
0.000160634
0.000160633
0.000160632
0.000160632
0.000160631
0.000160631
0.000160631
0.000160631
0.00016063
0.00016063
0.00016063
0.00016063
0.00016063
0.00016063
0.00016063
0.00016063
0.00016063
0.00016063
0.00016063
0.000160629
0.000160619
0.000160555
0.000186878
0.000175922
0.000169043
0.00016506
0.000162895
0.000161772
0.00016121
0.000160936
0.000160807
0.000160749
0.000160729
0.000160732
0.000160754
0.0001608
0.000160882
0.000161019
0.000161199
0.000161201
0.000160098
0.000155294
0.000113917
3.95093e-05
0.0002
0.0002
0.0002
0.0002
0.0002
0.0002
0.0002
0.0002
0.0002
0.0002
0.0002
0.0002
4.94892e-05
9.78395e-05
0.000128462
0.000145193
0.000153782
0.000157872
0.000159667
0.000160385
0.000160636
0.000160702
0.000160704
0.000160689
0.000160672
0.000160659
0.00016065
0.000160643
0.000160639
0.000160636
0.000160634
0.000160633
0.000160632
0.000160632
0.000160631
0.000160631
0.000160631
0.00016063
0.00016063
0.00016063
0.00016063
0.00016063
0.00016063
0.00016063
0.00016063
0.00016063
0.00016063
0.00016063
0.00016063
0.00016063
0.000160629
0.000160619
0.000160555
0.000186881
0.000175927
0.00016905
0.000165071
0.000162909
0.000161788
0.000161226
0.000160952
0.000160821
0.000160762
0.000160741
0.000160743
0.000160765
0.000160811
0.000160894
0.000161027
0.00016117
0.000160859
0.000157575
0.000142881
0.000104218
3.7177e-05
0.0002
0.0002
0.0002
0.0002
0.0002
0.0002
0.0002
0.0002
0.0002
0.0002
0.0002
0.0002
4.47622e-05
9.53729e-05
0.00012747
0.000144794
0.000153603
0.000157779
0.000159615
0.000160356
0.000160619
0.000160692
0.000160698
0.000160685
0.000160669
0.000160657
0.000160648
0.000160642
0.000160638
0.000160636
0.000160634
0.000160633
0.000160632
0.000160631
0.000160631
0.000160631
0.000160631
0.00016063
0.00016063
0.00016063
0.00016063
0.00016063
0.00016063
0.00016063
0.00016063
0.00016063
0.00016063
0.00016063
0.00016063
0.00016063
0.000160629
0.000160619
0.000160555
0.000186889
0.000175941
0.000169068
0.000165093
0.000162934
0.000161813
0.00016125
0.000160972
0.000160838
0.000160775
0.000160751
0.000160752
0.000160772
0.000160818
0.0001609
0.00016103
0.000161162
0.000160777
0.000156969
0.00013991
0.000102053
7.72527e-05
0.000115038
0.0002
0.0002
0.0002
0.0002
0.0002
0.0002
0.0002
0.0002
0.0002
0.0002
0.000194369
3.34367e-05
9.50678e-05
0.000128766
0.000145869
0.000154206
0.000158058
0.000159727
0.000160395
0.000160631
0.000160695
0.000160698
0.000160684
0.000160669
0.000160657
0.000160648
0.000160642
0.000160638
0.000160636
0.000160634
0.000160633
0.000160632
0.000160631
0.000160631
0.000160631
0.000160631
0.00016063
0.00016063
0.00016063
0.00016063
0.00016063
0.00016063
0.00016063
0.00016063
0.00016063
0.00016063
0.00016063
0.00016063
0.00016063
0.000160629
0.000160619
0.000160555
0.000186905
0.000175966
0.000169099
0.000165127
0.000162968
0.000161846
0.000161277
0.000160994
0.000160853
0.000160786
0.000160758
0.000160754
0.000160773
0.000160816
0.000160896
0.00016103
0.000161214
0.000161218
0.000159572
0.000150386
0.0001206
7.09463e-05
5.55099e-05
0.0002
0.0002
0.0002
0.0002
0.0002
0.0002
0.0002
0.0002
0.0002
0.0002
7.64961e-05
8.75555e-05
0.000116318
0.000137246
0.000149438
0.000155731
0.0001587
0.000159989
0.000160497
0.000160669
0.000160708
0.000160702
0.000160685
0.000160669
0.000160657
0.000160648
0.000160642
0.000160638
0.000160636
0.000160634
0.000160633
0.000160632
0.000160632
0.000160631
0.000160631
0.000160631
0.00016063
0.00016063
0.00016063
0.00016063
0.00016063
0.00016063
0.00016063
0.00016063
0.00016063
0.00016063
0.00016063
0.00016063
0.00016063
0.000160629
0.000160619
0.000160555
0.000186931
0.000176006
0.000169146
0.000165177
0.000163017
0.000161888
0.000161311
0.000161018
0.000160869
0.000160794
0.00016076
0.000160753
0.000160768
0.000160808
0.000160884
0.000161014
0.000161222
0.000161452
0.000161055
0.000156595
0.000137349
9.90465e-05
7.70608e-05
8.86396e-05
0.0002
0.0002
0.0002
0.0002
0.0002
0.0002
0.0002
0.0002
0.000122287
3.37137e-05
9.31189e-05
0.000126429
0.000144096
0.000153159
0.000157547
0.000159527
0.000160346
0.000160643
0.000160725
0.000160728
0.000160709
0.000160687
0.000160669
0.000160657
0.000160648
0.000160642
0.000160638
0.000160636
0.000160634
0.000160633
0.000160632
0.000160631
0.000160631
0.000160631
0.000160631
0.00016063
0.00016063
0.00016063
0.00016063
0.00016063
0.00016063
0.00016063
0.00016063
0.00016063
0.00016063
0.00016063
0.00016063
0.00016063
0.000160629
0.000160619
0.000160555
0.000186974
0.000176071
0.00016922
0.000165253
0.000163087
0.000161947
0.000161355
0.000161047
0.000160886
0.000160802
0.000160762
0.00016075
0.000160761
0.000160797
0.000160866
0.000160987
0.000161188
0.000161487
0.000161706
0.000160599
0.000153553
0.000132425
9.53816e-05
3.0999e-05
8.15855e-05
0.0002
0.0002
0.0002
0.0002
0.0002
0.0002
9.21134e-05
3.73958e-05
8.74698e-05
0.000121033
0.000140588
0.000151294
0.0001567
0.000159215
0.000160278
0.000160669
0.000160776
0.000160777
0.000160746
0.000160714
0.000160688
0.000160669
0.000160656
0.000160647
0.000160641
0.000160638
0.000160635
0.000160634
0.000160633
0.000160632
0.000160631
0.000160631
0.000160631
0.000160631
0.000160631
0.00016063
0.00016063
0.00016063
0.00016063
0.00016063
0.00016063
0.00016063
0.00016063
0.00016063
0.00016063
0.00016063
0.00016063
0.000160629
0.00016062
0.000160555
0.000187047
0.00017618
0.000169344
0.000165377
0.000163198
0.000162035
0.000161418
0.000161088
0.000160911
0.000160815
0.000160767
0.00016075
0.000160757
0.000160788
0.00016085
0.000160959
0.000161139
0.000161426
0.000161819
0.000162021
0.000160466
0.000152704
0.000131896
0.000104862
6.97252e-05
4.32417e-05
6.99713e-05
0.00010996
0.000118581
7.9741e-05
4.6924e-05
8.27707e-05
0.000107531
0.000128681
0.000143223
0.000152173
0.000157065
0.000159451
0.000160472
0.000160829
0.000160901
0.000160868
0.000160811
0.000160758
0.000160717
0.000160688
0.000160669
0.000160656
0.000160648
0.000160642
0.000160639
0.000160636
0.000160635
0.000160634
0.000160633
0.000160633
0.000160633
0.000160632
0.000160632
0.000160632
0.000160632
0.000160632
0.000160632
0.000160632
0.000160632
0.000160632
0.000160632
0.000160632
0.000160632
0.000160632
0.000160632
0.000160632
0.00016063
0.000160621
0.000160557
0.000187185
0.000176385
0.000169575
0.000165603
0.000163391
0.000162182
0.000161522
0.000161158
0.000160958
0.000160848
0.000160792
0.00016077
0.000160774
0.000160802
0.000160859
0.000160957
0.000161114
0.000161364
0.000161739
0.000162219
0.000162441
0.000161063
0.000155837
0.000147883
0.000138222
0.000132865
0.000134856
0.000139184
0.000137941
0.000131655
0.000128606
0.000135587
0.000143661
0.000150688
0.000155751
0.000158809
0.000160369
0.000161012
0.000161177
0.000161137
0.000161033
0.000160927
0.000160841
0.000160777
0.000160733
0.000160703
0.000160684
0.000160671
0.000160663
0.000160658
0.000160655
0.000160652
0.000160651
0.00016065
0.000160649
0.000160649
0.000160649
0.000160648
0.000160648
0.000160648
0.000160648
0.000160648
0.000160648
0.000160648
0.000160648
0.000160648
0.000160648
0.000160648
0.000160648
0.000160648
0.000160648
0.000160648
0.000160646
0.000160637
0.000160573
0.000187491
0.000176852
0.000170099
0.000166103
0.00016381
0.000162514
0.000161785
0.000161377
0.000161151
0.00016103
0.000160969
0.000160947
0.000160953
0.000160985
0.000161045
0.000161142
0.000161291
0.000161513
0.000161838
0.000162289
0.000162814
0.000163129
0.000162683
0.000161374
0.000159393
0.000157656
0.000156571
0.000155853
0.000154685
0.000153566
0.000153642
0.000155446
0.000157751
0.000159708
0.000161002
0.00016165
0.000161837
0.000161767
0.000161592
0.000161401
0.000161235
0.000161105
0.00016101
0.000160943
0.000160897
0.000160867
0.000160846
0.000160833
0.000160824
0.000160818
0.000160813
0.000160811
0.000160809
0.000160807
0.000160807
0.000160806
0.000160805
0.000160805
0.000160805
0.000160805
0.000160805
0.000160805
0.000160804
0.000160804
0.000160804
0.000160804
0.000160804
0.000160804
0.000160804
0.000160804
0.000160804
0.000160804
0.000160803
0.000160794
0.00016073
0.000188364
0.000178255
0.000171708
0.000167743
0.000165355
0.000164026
0.000163269
0.000162853
0.00016263
0.000162514
0.000162458
0.000162448
0.000162473
0.00016253
0.00016262
0.00016275
0.000162929
0.000163161
0.000163465
0.000163851
0.000164299
0.000164725
0.000164951
0.000164842
0.000164349
0.000163524
0.00016253
0.000161638
0.000161032
0.000160867
0.000161211
0.000161929
0.000162689
0.000163244
0.000163511
0.000163536
0.000163405
0.000163204
0.000162994
0.000162808
0.000162657
0.00016254
0.000162449
0.000162383
0.000162336
0.000162303
0.000162281
0.000162266
0.000162256
0.000162249
0.000162244
0.000162241
0.000162239
0.000162238
0.000162237
0.000162236
0.000162236
0.000162235
0.000162235
0.000162235
0.000162235
0.000162235
0.000162235
0.000162234
0.000162234
0.000162234
0.000162234
0.000162234
0.000162234
0.000162234
0.000162234
0.000162234
0.000162233
0.000162224
0.00016216
0.000191339
0.000183361
0.000178833
0.00017681
0.000175682
0.000175046
0.000174704
0.00017455
0.00017449
0.000174471
0.00017447
0.000174488
0.000174527
0.000174592
0.000174685
0.000174809
0.000174964
0.000175145
0.000175339
0.000175506
0.000175582
0.000175459
0.000174993
0.000174141
0.000172869
0.000171354
0.000169781
0.000168533
0.000167929
0.000168027
0.000168662
0.000169632
0.000170638
0.000171509
0.000172172
0.000172666
0.000173019
0.000173263
0.000173432
0.000173553
0.000173645
0.000173718
0.000173778
0.00017383
0.000173873
0.00017391
0.00017394
0.000173966
0.000173987
0.000174005
0.000174019
0.00017403
0.000174039
0.000174046
0.000174052
0.000174057
0.00017406
0.000174063
0.000174065
0.000174067
0.000174068
0.000174069
0.00017407
0.000174071
0.000174071
0.000174071
0.000174072
0.000174072
0.000174072
0.000174072
0.000174072
0.000174072
0.000174071
0.000174062
0.000174002
0.000201742
0.000207802
0.000219588
0.000234682
0.000245207
0.000252128
0.000256062
0.000257922
0.000258491
0.000258367
0.000257921
0.000257349
0.000256723
0.000256053
0.000255315
0.000254462
0.000253432
0.000252141
0.000250482
0.000248316
0.000245502
0.000241902
0.000237415
0.000232196
0.000226544
0.000221053
0.000216383
0.000213195
0.000211921
0.000212468
0.000214625
0.000218031
0.000222211
0.000226692
0.000231106
0.000235227
0.000238936
0.000242182
0.000244952
0.000247271
0.000249185
0.000250748
0.000252012
0.000253027
0.000253838
0.000254482
0.00025499
0.000255389
0.000255701
0.000255945
0.000256135
0.000256283
0.000256397
0.000256486
0.000256555
0.000256608
0.000256649
0.000256681
0.000256706
0.000256725
0.000256739
0.000256751
0.000256759
0.000256766
0.000256771
0.000256775
0.000256778
0.00025678
0.000256782
0.000256784
0.000256785
0.000256785
0.000256785
0.000256779
0.000256749
0.000256485
0.000345282
0.000456123
0.000582829
0.000640703
0.000662948
0.000667214
0.000663661
0.000657611
0.000651279
0.000645282
0.000639566
0.000633855
0.000627809
0.00062107
0.000613272
0.000604032
0.000592947
0.000579659
0.0005639
0.00054562
0.000525031
0.000502753
0.000479989
0.000458394
0.000439853
0.00042605
0.000418204
0.000416791
0.00042165
0.000432255
0.000447611
0.000466333
0.000486918
0.000507983
0.0005284
0.000547327
0.000564244
0.000578913
0.000591331
0.000601644
0.000610074
0.000616877
0.000622307
0.000626605
0.000629984
0.000632625
0.000634681
0.000636276
0.00063751
0.000638463
0.000639197
0.000639763
0.000640199
0.000640533
0.00064079
0.000640987
0.000641139
0.000641255
0.000641343
0.000641412
0.000641464
0.000641504
0.000641534
0.000641558
0.000641576
0.000641589
0.0006416
0.000641608
0.000641614
0.000641618
0.000641622
0.000641624
0.000641636
0.000641791
)
;

boundaryField
{
    ibCylinder
    {
        type            immersedBoundaryEpsilonWallFunction;
        patchType       immersedBoundary;
        blending        stepwise;
        setDeadValue    true;
        deadValue       0.0002;
        value           nonuniform List<scalar> 0();
    }
    in
    {
        type            fixedValue;
        value           uniform 0.0002;
    }
    out
    {
        type            inletOutlet;
        inletValue      uniform 0.0002;
        value           nonuniform List<scalar> 
25
(
0.000646317
0.000266459
0.000177787
0.000163054
0.000160895
0.000160599
0.000160561
0.000160556
0.000160555
0.000160555
0.000160555
0.000160555
0.000160555
0.000160555
0.000160555
0.000160555
0.000160555
0.000160555
0.000160557
0.000160573
0.00016073
0.00016216
0.000174002
0.000256749
0.000641791
)
;
    }
    top
    {
        type            zeroGradient;
    }
    bottom
    {
        type            zeroGradient;
    }
    frontAndBack
    {
        type            empty;
    }
}


// ************************************************************************* //
