/*--------------------------------*- C++ -*----------------------------------*\
| =========                 |                                                 |
| \\      /  F ield         | OpenFOAM: The Open Source CFD Toolbox           |
|  \\    /   O peration     | Version:  2206                                  |
|   \\  /    A nd           | Website:  www.openfoam.com                      |
|    \\/     M anipulation  |                                                 |
\*---------------------------------------------------------------------------*/
FoamFile
{
    version     2.0;
    format      ascii;
    arch        "LSB;label=32;scalar=64";
    class       volScalarField;
    location    "0.1";
    object      k;
}
// * * * * * * * * * * * * * * * * * * * * * * * * * * * * * * * * * * * * * //

dimensions      [0 2 -2 0 0 0 0];

internalField   nonuniform List<scalar> 
1875
(
0.00018023
0.000224454
0.000275591
0.000330141
0.00035403
0.000362874
0.000364412
0.000362873
0.000360396
0.000357846
0.000355452
0.00035318
0.000350914
0.000348515
0.000345836
0.000342729
0.000339035
0.000334584
0.000329218
0.000322813
0.000315322
0.000306802
0.000297485
0.000287854
0.000278613
0.000270596
0.000264578
0.000261144
0.000260536
0.00026268
0.000267323
0.000273992
0.000282044
0.000290807
0.000299679
0.000308193
0.000316012
0.000322943
0.00032891
0.00033393
0.000338078
0.000341454
0.000344169
0.000346329
0.000348036
0.000349374
0.000350419
0.000351231
0.00035186
0.000352346
0.000352721
0.000353011
0.000353233
0.000353404
0.000353536
0.000353637
0.000353714
0.000353774
0.000353819
0.000353854
0.000353881
0.000353901
0.000353917
0.000353929
0.000353938
0.000353945
0.000353951
0.000353955
0.000353958
0.00035396
0.000353962
0.000353964
0.000353968
0.000353988
0.000354072
0.000152303
0.00015646
0.000163274
0.000171546
0.000177724
0.000181685
0.000183938
0.00018502
0.000185381
0.000185358
0.000185159
0.000184894
0.000184604
0.0001843
0.00018397
0.000183593
0.000183139
0.000182566
0.000181821
0.000180828
0.000179511
0.000177789
0.000175595
0.000172993
0.000170119
0.000167274
0.00016481
0.000163087
0.000162347
0.000162548
0.000163586
0.000165263
0.000167332
0.00016955
0.000171733
0.000173771
0.000175606
0.000177214
0.000178589
0.000179741
0.000180694
0.000181473
0.000182103
0.00018261
0.000183015
0.000183337
0.000183591
0.000183791
0.000183947
0.000184069
0.000184164
0.000184238
0.000184295
0.000184339
0.000184374
0.0001844
0.000184421
0.000184437
0.000184449
0.000184458
0.000184465
0.000184471
0.000184475
0.000184479
0.000184481
0.000184483
0.000184485
0.000184486
0.000184487
0.000184487
0.000184488
0.000184489
0.000184495
0.000184552
0.000185063
0.000147088
0.000144244
0.000142845
0.000142534
0.000142549
0.000142617
0.000142686
0.000142748
0.000142793
0.000142821
0.000142836
0.00014285
0.000142872
0.000142905
0.000142955
0.000143023
0.000143109
0.000143211
0.000143322
0.000143418
0.000143465
0.000143404
0.000143156
0.000142694
0.000141988
0.000141125
0.000140215
0.00013949
0.000139147
0.000139212
0.000139571
0.000140088
0.0001406
0.000141033
0.000141363
0.00014162
0.000141816
0.000141964
0.000142078
0.000142168
0.000142241
0.000142302
0.000142353
0.000142396
0.000142433
0.000142463
0.000142488
0.000142509
0.000142525
0.000142539
0.00014255
0.000142558
0.000142565
0.00014257
0.000142575
0.000142578
0.00014258
0.000142583
0.000142584
0.000142585
0.000142586
0.000142587
0.000142588
0.000142588
0.000142588
0.000142589
0.000142589
0.000142589
0.000142589
0.000142589
0.000142589
0.00014259
0.000142591
0.000142609
0.000142759
0.000145558
0.000141626
0.000139082
0.000137564
0.000136662
0.000136179
0.000135906
0.00013576
0.000135685
0.000135647
0.00013563
0.000135632
0.000135649
0.000135682
0.000135732
0.000135804
0.000135902
0.000136031
0.000136199
0.000136416
0.000136679
0.000136967
0.00013722
0.000137347
0.000137264
0.000136932
0.000136446
0.00013605
0.000135921
0.000136075
0.000136374
0.000136648
0.000136793
0.00013679
0.000136676
0.000136502
0.00013631
0.00013613
0.000135977
0.000135855
0.000135763
0.000135695
0.000135644
0.000135606
0.00013558
0.000135562
0.000135549
0.000135541
0.000135535
0.000135531
0.000135529
0.000135527
0.000135526
0.000135525
0.000135524
0.000135524
0.000135524
0.000135523
0.000135523
0.000135523
0.000135523
0.000135523
0.000135523
0.000135523
0.000135523
0.000135523
0.000135523
0.000135523
0.000135523
0.000135523
0.000135523
0.000135523
0.000135523
0.000135524
0.000135535
0.000145098
0.000140881
0.000138198
0.000136606
0.000135686
0.000135161
0.000134865
0.000134699
0.000134609
0.000134563
0.000134541
0.000134536
0.000134543
0.000134562
0.000134595
0.000134646
0.000134726
0.000134846
0.000135025
0.00013529
0.00013567
0.00013617
0.000136731
0.000137145
0.000137201
0.000136938
0.000136569
0.000136453
0.000136632
0.000136996
0.000137333
0.000137446
0.000137282
0.00013694
0.00013653
0.000136112
0.000135727
0.000135402
0.000135144
0.000134951
0.000134811
0.000134712
0.000134643
0.000134596
0.000134563
0.000134541
0.000134525
0.000134515
0.000134507
0.000134502
0.000134498
0.000134495
0.000134494
0.000134492
0.000134491
0.00013449
0.00013449
0.000134489
0.000134489
0.000134489
0.000134489
0.000134488
0.000134488
0.000134488
0.000134488
0.000134488
0.000134488
0.000134488
0.000134488
0.000134488
0.000134488
0.000134488
0.000134488
0.000134485
0.000134464
0.000144935
0.000140629
0.000137909
0.000136321
0.000135432
0.000134943
0.000134674
0.000134526
0.000134445
0.000134402
0.000134382
0.000134375
0.00013438
0.000134396
0.000134425
0.000134475
0.000134557
0.000134691
0.000134909
0.000135268
0.000135843
0.000136688
0.000137757
0.000138678
0.000138954
0.000139092
0.000139822
0.000140829
0.000141861
0.000142375
0.000142172
0.000141303
0.000139917
0.000138586
0.00013753
0.000136702
0.000136049
0.000135546
0.000135174
0.000134909
0.000134726
0.000134601
0.000134518
0.000134463
0.000134426
0.000134402
0.000134385
0.000134374
0.000134367
0.000134361
0.000134358
0.000134355
0.000134353
0.000134352
0.000134351
0.00013435
0.000134349
0.000134349
0.000134348
0.000134348
0.000134348
0.000134348
0.000134348
0.000134348
0.000134348
0.000134348
0.000134348
0.000134348
0.000134348
0.000134348
0.000134348
0.000134347
0.000134347
0.000134343
0.000134317
0.00014486
0.000140518
0.000137785
0.000136201
0.00013533
0.000134864
0.000134616
0.000134483
0.000134412
0.000134375
0.000134358
0.000134353
0.000134358
0.000134375
0.000134406
0.000134461
0.000134555
0.000134716
0.000135002
0.000135527
0.000136448
0.000137934
0.000140106
0.000142699
0.000144682
0.000143195
0.000141582
0.00014076
0.000141262
0.00014286
0.000144485
0.000146307
0.000144365
0.000141684
0.000139399
0.000137822
0.000136719
0.000135938
0.000135393
0.000135025
0.000134781
0.000134623
0.000134522
0.000134456
0.000134414
0.000134387
0.000134369
0.000134357
0.000134349
0.000134343
0.00013434
0.000134337
0.000134335
0.000134333
0.000134332
0.000134332
0.000134331
0.000134331
0.00013433
0.00013433
0.00013433
0.00013433
0.00013433
0.00013433
0.00013433
0.000134329
0.000134329
0.000134329
0.000134329
0.000134329
0.000134329
0.000134329
0.000134329
0.000134325
0.000134298
0.00014482
0.000140459
0.000137721
0.000136139
0.000135278
0.000134824
0.000134589
0.000134467
0.000134403
0.000134371
0.000134356
0.000134353
0.00013436
0.000134378
0.000134413
0.000134474
0.000134583
0.000134781
0.000135162
0.00013594
0.000137392
0.000139595
0.000141726
0.000143438
0.00014403
0.00015
0.00015
0.00015
0.00015
0.00015
0.00015
0.000144836
0.000144944
0.000143802
0.000141317
0.000139128
0.00013756
0.000136452
0.000135694
0.000135192
0.000134871
0.000134669
0.000134544
0.000134467
0.000134418
0.000134388
0.000134368
0.000134355
0.000134347
0.000134341
0.000134337
0.000134335
0.000134333
0.000134331
0.00013433
0.000134329
0.000134329
0.000134328
0.000134328
0.000134328
0.000134328
0.000134328
0.000134327
0.000134327
0.000134327
0.000134327
0.000134327
0.000134327
0.000134327
0.000134327
0.000134327
0.000134327
0.000134327
0.000134323
0.000134296
0.000144797
0.000140424
0.000137683
0.000136104
0.000135248
0.000134802
0.000134575
0.000134459
0.000134401
0.000134372
0.00013436
0.000134359
0.000134367
0.000134387
0.000134425
0.000134493
0.000134617
0.000134851
0.000135339
0.000136403
0.00013834
0.000140513
0.000142372
0.000142777
0.00015
0.00015
0.00015
0.00015
0.00015
0.00015
0.00015
0.00015
0.000143697
0.000143822
0.00014245
0.000140288
0.000138411
0.000137006
0.000136028
0.000135382
0.000134973
0.000134721
0.000134569
0.000134478
0.000134423
0.000134389
0.000134368
0.000134355
0.000134346
0.00013434
0.000134337
0.000134334
0.000134332
0.000134331
0.00013433
0.000134329
0.000134328
0.000134328
0.000134328
0.000134328
0.000134327
0.000134327
0.000134327
0.000134327
0.000134327
0.000134327
0.000134327
0.000134327
0.000134327
0.000134327
0.000134327
0.000134327
0.000134326
0.000134322
0.000134295
0.000144783
0.000140402
0.00013766
0.000136082
0.00013523
0.000134789
0.000134566
0.000134456
0.000134401
0.000134375
0.000134365
0.000134366
0.000134376
0.000134398
0.000134439
0.000134512
0.000134645
0.000134898
0.000135433
0.000136565
0.000138741
0.00014121
0.000142487
0.00015
0.00015
0.00015
0.00015
0.00015
0.00015
0.00015
0.00015
0.00015
0.00015
0.000143116
0.00014269
0.000140942
0.000139048
0.000137481
0.000136335
0.000135561
0.000135069
0.000134769
0.000134591
0.000134486
0.000134425
0.000134389
0.000134367
0.000134353
0.000134345
0.000134339
0.000134336
0.000134333
0.000134331
0.00013433
0.000134329
0.000134329
0.000134328
0.000134328
0.000134328
0.000134327
0.000134327
0.000134327
0.000134327
0.000134327
0.000134327
0.000134327
0.000134327
0.000134327
0.000134327
0.000134327
0.000134327
0.000134327
0.000134326
0.000134322
0.000134295
0.000144774
0.000140389
0.000137645
0.000136069
0.000135218
0.00013478
0.000134561
0.000134454
0.000134402
0.000134378
0.00013437
0.000134372
0.000134383
0.000134407
0.00013445
0.000134528
0.00013467
0.000134956
0.00013563
0.000137304
0.000140056
0.000142043
0.000143704
0.00015
0.00015
0.00015
0.00015
0.00015
0.00015
0.00015
0.00015
0.00015
0.00015
0.000142137
0.000142515
0.000141195
0.000139403
0.00013778
0.000136539
0.000135683
0.000135134
0.0001348
0.000134603
0.000134489
0.000134424
0.000134386
0.000134364
0.00013435
0.000134342
0.000134337
0.000134334
0.000134332
0.00013433
0.000134329
0.000134329
0.000134328
0.000134328
0.000134328
0.000134327
0.000134327
0.000134327
0.000134327
0.000134327
0.000134327
0.000134327
0.000134327
0.000134327
0.000134327
0.000134327
0.000134327
0.000134327
0.000134327
0.000134326
0.000134322
0.000134295
0.00014477
0.000140381
0.000137637
0.000136061
0.000135212
0.000134776
0.000134558
0.000134453
0.000134403
0.00013438
0.000134373
0.000134376
0.000134388
0.000134413
0.000134459
0.00013454
0.00013469
0.000134985
0.000135613
0.000137186
0.000140376
0.000142792
0.00015
0.00015
0.00015
0.00015
0.00015
0.00015
0.00015
0.00015
0.00015
0.00015
0.00015
0.00015
0.000142088
0.000141046
0.000139438
0.00013787
0.000136616
0.000135731
0.000135157
0.000134807
0.000134602
0.000134485
0.000134419
0.000134381
0.000134359
0.000134347
0.00013434
0.000134335
0.000134332
0.000134331
0.000134329
0.000134329
0.000134328
0.000134328
0.000134327
0.000134327
0.000134327
0.000134327
0.000134327
0.000134327
0.000134327
0.000134327
0.000134327
0.000134327
0.000134327
0.000134327
0.000134327
0.000134327
0.000134327
0.000134327
0.000134326
0.000134322
0.000134295
0.000144768
0.000140379
0.000137634
0.000136059
0.000135211
0.000134776
0.00013456
0.000134455
0.000134405
0.000134384
0.000134377
0.00013438
0.000134393
0.000134418
0.000134465
0.000134549
0.0001347
0.000134979
0.000135479
0.000136574
0.000139248
0.000141688
0.00015
0.00015
0.00015
0.00015
0.00015
0.00015
0.00015
0.00015
0.00015
0.00015
0.00015
0.00015
0.000141648
0.000140729
0.000139262
0.00013779
0.000136581
0.000135714
0.000135147
0.000134799
0.000134595
0.000134479
0.000134414
0.000134377
0.000134356
0.000134345
0.000134338
0.000134334
0.000134331
0.00013433
0.000134329
0.000134328
0.000134328
0.000134327
0.000134327
0.000134327
0.000134327
0.000134327
0.000134327
0.000134327
0.000134327
0.000134327
0.000134327
0.000134327
0.000134327
0.000134327
0.000134327
0.000134327
0.000134327
0.000134327
0.000134326
0.000134322
0.000134295
0.000144769
0.000140381
0.000137637
0.000136064
0.000135217
0.000134783
0.000134567
0.000134461
0.000134411
0.000134389
0.000134381
0.000134384
0.000134397
0.000134422
0.000134469
0.000134553
0.000134706
0.000135004
0.000135636
0.000137224
0.00014046
0.000142851
0.00015
0.00015
0.00015
0.00015
0.00015
0.00015
0.00015
0.00015
0.00015
0.00015
0.00015
0.00015
0.000142098
0.000141033
0.000139416
0.00013785
0.0001366
0.000135717
0.000135145
0.000134797
0.000134593
0.000134477
0.000134412
0.000134376
0.000134355
0.000134344
0.000134337
0.000134333
0.000134331
0.00013433
0.000134329
0.000134328
0.000134328
0.000134327
0.000134327
0.000134327
0.000134327
0.000134327
0.000134327
0.000134327
0.000134327
0.000134327
0.000134327
0.000134327
0.000134327
0.000134327
0.000134327
0.000134327
0.000134327
0.000134327
0.000134326
0.000134322
0.000134295
0.000144774
0.000140388
0.000137647
0.000136074
0.000135229
0.000134794
0.000134576
0.000134469
0.000134417
0.000134393
0.000134384
0.000134386
0.000134398
0.000134423
0.000134469
0.00013455
0.000134698
0.000134991
0.00013568
0.000137368
0.000140132
0.000142157
0.000143831
0.00015
0.00015
0.00015
0.00015
0.00015
0.00015
0.00015
0.00015
0.00015
0.00015
0.000142177
0.000142585
0.000141203
0.0001394
0.000137777
0.000136533
0.000135672
0.000135119
0.000134783
0.000134586
0.000134474
0.000134411
0.000134375
0.000134355
0.000134344
0.000134337
0.000134333
0.000134331
0.00013433
0.000134329
0.000134328
0.000134328
0.000134327
0.000134327
0.000134327
0.000134327
0.000134327
0.000134327
0.000134327
0.000134327
0.000134327
0.000134327
0.000134327
0.000134327
0.000134327
0.000134327
0.000134327
0.000134327
0.000134327
0.000134326
0.000134322
0.000134295
0.000144783
0.000140402
0.000137662
0.000136091
0.000135245
0.000134808
0.000134588
0.000134478
0.000134423
0.000134396
0.000134385
0.000134385
0.000134396
0.00013442
0.000134464
0.000134542
0.000134681
0.000134945
0.000135497
0.000136647
0.000138835
0.000141371
0.000142693
0.00015
0.00015
0.00015
0.00015
0.00015
0.00015
0.00015
0.00015
0.00015
0.00015
0.00014323
0.000142761
0.00014097
0.000139081
0.00013751
0.000136349
0.000135558
0.000135054
0.000134748
0.000134569
0.000134465
0.000134407
0.000134373
0.000134354
0.000134343
0.000134337
0.000134333
0.000134331
0.00013433
0.000134329
0.000134328
0.000134328
0.000134327
0.000134327
0.000134327
0.000134327
0.000134327
0.000134327
0.000134327
0.000134327
0.000134327
0.000134327
0.000134327
0.000134327
0.000134327
0.000134327
0.000134327
0.000134327
0.000134327
0.000134326
0.000134322
0.000134295
0.000144797
0.000140423
0.000137686
0.000136115
0.000135268
0.000134828
0.000134603
0.000134488
0.000134428
0.000134398
0.000134385
0.000134383
0.000134392
0.000134413
0.000134455
0.000134528
0.000134659
0.000134904
0.000135406
0.000136494
0.00013846
0.000140671
0.000142573
0.000143015
0.00015
0.00015
0.00015
0.00015
0.00015
0.00015
0.00015
0.00015
0.000143803
0.000143958
0.000142498
0.000140347
0.000138484
0.000137064
0.000136056
0.000135383
0.000134956
0.000134696
0.000134542
0.000134452
0.0001344
0.00013437
0.000134353
0.000134343
0.000134337
0.000134333
0.000134331
0.000134329
0.000134329
0.000134328
0.000134328
0.000134327
0.000134327
0.000134327
0.000134327
0.000134327
0.000134327
0.000134327
0.000134327
0.000134327
0.000134327
0.000134327
0.000134327
0.000134327
0.000134327
0.000134327
0.000134327
0.000134327
0.000134326
0.000134322
0.000134295
0.00014482
0.000140458
0.000137725
0.000136154
0.000135302
0.000134856
0.000134623
0.000134501
0.000134435
0.000134401
0.000134384
0.00013438
0.000134387
0.000134406
0.000134444
0.000134511
0.000134627
0.000134835
0.000135231
0.000136032
0.000137509
0.000139719
0.000141889
0.000143691
0.000144328
0.00015
0.00015
0.00015
0.00015
0.00015
0.00015
0.000145024
0.000145074
0.000143867
0.000141406
0.000139258
0.000137677
0.000136527
0.000135723
0.000135188
0.000134848
0.000134638
0.000134511
0.000134436
0.000134392
0.000134366
0.000134351
0.000134341
0.000134336
0.000134333
0.000134331
0.000134329
0.000134329
0.000134328
0.000134328
0.000134327
0.000134327
0.000134327
0.000134327
0.000134327
0.000134327
0.000134327
0.000134327
0.000134327
0.000134327
0.000134327
0.000134327
0.000134327
0.000134327
0.000134327
0.000134327
0.000134327
0.000134326
0.000134322
0.000134296
0.00014486
0.000140517
0.000137789
0.000136217
0.000135358
0.000134899
0.000134654
0.00013452
0.000134446
0.000134406
0.000134385
0.000134379
0.000134384
0.000134401
0.000134436
0.000134495
0.000134596
0.000134766
0.000135065
0.000135606
0.000136553
0.000138064
0.000140246
0.000142865
0.000144907
0.000143415
0.000141903
0.000141117
0.000141589
0.00014315
0.000144763
0.000146556
0.000144543
0.000141872
0.000139625
0.00013802
0.00013685
0.000136002
0.000135407
0.000135006
0.000134747
0.000134584
0.000134483
0.000134422
0.000134385
0.000134363
0.000134349
0.000134341
0.000134336
0.000134333
0.000134331
0.00013433
0.000134329
0.000134329
0.000134328
0.000134328
0.000134328
0.000134328
0.000134328
0.000134328
0.000134328
0.000134328
0.000134328
0.000134328
0.000134328
0.000134328
0.000134328
0.000134328
0.000134328
0.000134328
0.000134328
0.000134328
0.000134327
0.000134323
0.000134296
0.000144935
0.000140626
0.00013791
0.000136333
0.000135456
0.000134973
0.000134705
0.000134554
0.000134469
0.000134422
0.000134398
0.000134389
0.000134393
0.000134409
0.000134441
0.000134494
0.000134582
0.000134722
0.00013495
0.000135322
0.000135913
0.000136783
0.000137874
0.00013879
0.000139095
0.000139338
0.000140151
0.000141176
0.000142146
0.000142566
0.000142307
0.000141469
0.000140174
0.000138868
0.000137769
0.000136859
0.000136127
0.000135564
0.000135153
0.000134866
0.000134674
0.000134549
0.000134469
0.000134419
0.000134388
0.000134368
0.000134356
0.000134349
0.000134344
0.000134341
0.000134339
0.000134338
0.000134337
0.000134337
0.000134336
0.000134336
0.000134336
0.000134336
0.000134336
0.000134336
0.000134336
0.000134336
0.000134336
0.000134336
0.000134336
0.000134336
0.000134336
0.000134336
0.000134336
0.000134336
0.000134336
0.000134335
0.000134335
0.000134331
0.000134304
0.0001451
0.000140874
0.000138183
0.000136588
0.000135666
0.000135137
0.000134834
0.000134661
0.000134564
0.000134512
0.000134486
0.000134478
0.000134484
0.000134503
0.000134537
0.000134591
0.000134673
0.000134797
0.000134982
0.000135254
0.000135642
0.000136155
0.000136731
0.000137162
0.000137247
0.000137025
0.000136688
0.000136586
0.000136763
0.000137122
0.000137466
0.000137598
0.000137441
0.000137069
0.000136604
0.000136127
0.000135693
0.000135332
0.000135053
0.000134848
0.000134704
0.000134606
0.00013454
0.000134496
0.000134468
0.000134449
0.000134437
0.00013443
0.000134424
0.000134421
0.000134419
0.000134417
0.000134416
0.000134415
0.000134415
0.000134414
0.000134414
0.000134414
0.000134414
0.000134414
0.000134414
0.000134414
0.000134414
0.000134414
0.000134414
0.000134414
0.000134413
0.000134413
0.000134413
0.000134413
0.000134413
0.000134413
0.000134413
0.000134409
0.000134382
0.000145568
0.000141612
0.000139006
0.000137405
0.00013642
0.000135873
0.000135558
0.000135385
0.000135294
0.000135247
0.000135227
0.000135228
0.000135246
0.00013528
0.000135332
0.000135405
0.000135506
0.000135637
0.000135808
0.000136029
0.000136299
0.000136598
0.000136869
0.000137024
0.00013698
0.000136692
0.000136249
0.000135888
0.000135781
0.000135947
0.000136249
0.000136521
0.000136653
0.000136624
0.000136472
0.000136257
0.000136028
0.000135817
0.000135639
0.0001355
0.000135395
0.000135318
0.00013526
0.000135219
0.00013519
0.00013517
0.000135156
0.000135147
0.00013514
0.000135136
0.000135133
0.000135131
0.00013513
0.000135129
0.000135128
0.000135128
0.000135127
0.000135127
0.000135127
0.000135127
0.000135127
0.000135126
0.000135126
0.000135126
0.000135126
0.000135126
0.000135126
0.000135126
0.000135126
0.000135126
0.000135126
0.000135126
0.000135126
0.000135122
0.000135095
0.000147139
0.000144229
0.00014256
0.000141846
0.000141451
0.000141234
0.000141132
0.000141105
0.000141113
0.000141133
0.000141156
0.000141184
0.00014122
0.00014127
0.000141334
0.000141417
0.000141519
0.000141639
0.00014177
0.000141892
0.000141973
0.000141957
0.00014177
0.000141387
0.000140777
0.000140022
0.000139222
0.000138596
0.000138331
0.000138444
0.000138817
0.000139321
0.000139798
0.000140175
0.000140434
0.000140611
0.000140724
0.000140793
0.000140833
0.000140857
0.000140874
0.000140888
0.0001409
0.000140911
0.000140921
0.000140931
0.00014094
0.000140947
0.000140954
0.00014096
0.000140964
0.000140968
0.000140971
0.000140974
0.000140976
0.000140977
0.000140979
0.00014098
0.00014098
0.000140981
0.000140981
0.000140982
0.000140982
0.000140982
0.000140983
0.000140983
0.000140983
0.000140983
0.000140983
0.000140983
0.000140983
0.000140983
0.000140983
0.000140979
0.000140954
0.000152475
0.000156483
0.000162546
0.000169646
0.000174653
0.00017802
0.000180007
0.000181013
0.000181392
0.000181423
0.000181286
0.000181082
0.000180848
0.000180595
0.000180315
0.000179989
0.000179591
0.000179083
0.000178413
0.000177512
0.000176306
0.000174717
0.000172679
0.000170256
0.000167576
0.00016493
0.000162652
0.000161087
0.000160464
0.00016073
0.000161779
0.000163418
0.000165404
0.000167502
0.000169536
0.000171408
0.000173069
0.000174507
0.000175721
0.000176728
0.000177554
0.000178224
0.000178764
0.000179197
0.000179542
0.000179815
0.000180031
0.000180201
0.000180333
0.000180437
0.000180518
0.00018058
0.000180629
0.000180667
0.000180696
0.000180719
0.000180737
0.00018075
0.000180761
0.000180769
0.000180775
0.00018078
0.000180784
0.000180786
0.000180789
0.00018079
0.000180792
0.000180793
0.000180793
0.000180794
0.000180794
0.000180795
0.000180795
0.000180793
0.000180786
0.00018011
0.000224039
0.000274725
0.00032878
0.000352385
0.000361099
0.000362608
0.000361089
0.000358647
0.000356133
0.000353768
0.000351521
0.000349276
0.000346895
0.000344236
0.000341151
0.00033748
0.000333059
0.00032773
0.000321368
0.00031393
0.000305473
0.000296225
0.000286669
0.0002775
0.000269547
0.000263577
0.000260168
0.000259558
0.000261677
0.000266282
0.000272905
0.000280907
0.000289617
0.000298437
0.000306898
0.000314667
0.000321551
0.000327476
0.00033246
0.000336576
0.000339925
0.000342617
0.00034476
0.000346452
0.000347779
0.000348815
0.00034962
0.000350244
0.000350726
0.000351098
0.000351385
0.000351605
0.000351775
0.000351906
0.000352006
0.000352083
0.000352141
0.000352187
0.000352221
0.000352248
0.000352268
0.000352284
0.000352295
0.000352305
0.000352311
0.000352317
0.000352321
0.000352324
0.000352326
0.000352328
0.000352329
0.000352331
0.00035234
0.00035243
)
;

boundaryField
{
    ibCylinder
    {
        type            immersedBoundaryKqRWallFunction;
        patchType       immersedBoundary;
        setDeadValue    true;
        deadValue       0.00015;
        value           nonuniform List<scalar> 0();
    }
    in
    {
        type            fixedValue;
        value           uniform 0.00015;
    }
    out
    {
        type            inletOutlet;
        inletValue      uniform 0.00015;
        value           nonuniform List<scalar> 
25
(
0.000354072
0.000185063
0.000142759
0.000135535
0.000134464
0.000134317
0.000134298
0.000134296
0.000134295
0.000134295
0.000134295
0.000134295
0.000134295
0.000134295
0.000134295
0.000134295
0.000134295
0.000134296
0.000134296
0.000134304
0.000134382
0.000135095
0.000140954
0.000180786
0.00035243
)
;
    }
    top
    {
        type            zeroGradient;
    }
    bottom
    {
        type            zeroGradient;
    }
    frontAndBack
    {
        type            empty;
    }
}


// ************************************************************************* //
