/*--------------------------------*- C++ -*----------------------------------*\
| =========                 |                                                 |
| \\      /  F ield         | OpenFOAM: The Open Source CFD Toolbox           |
|  \\    /   O peration     | Version:  2206                                  |
|   \\  /    A nd           | Website:  www.openfoam.com                      |
|    \\/     M anipulation  |                                                 |
\*---------------------------------------------------------------------------*/
FoamFile
{
    version     2.0;
    format      ascii;
    arch        "LSB;label=32;scalar=64";
    class       volScalarField;
    location    "0.1";
    object      nut;
}
// * * * * * * * * * * * * * * * * * * * * * * * * * * * * * * * * * * * * * //

dimensions      [0 2 -1 0 0 0 0];

internalField   nonuniform List<scalar> 
1875
(
1.13873e-05
1.30968e-05
1.49185e-05
1.67313e-05
1.74889e-05
1.77501e-05
1.77839e-05
1.77283e-05
1.76489e-05
1.75703e-05
1.74982e-05
1.74304e-05
1.73632e-05
1.7292e-05
1.72124e-05
1.712e-05
1.70097e-05
1.68763e-05
1.67148e-05
1.65208e-05
1.62924e-05
1.60306e-05
1.57418e-05
1.54406e-05
1.51492e-05
1.48948e-05
1.47031e-05
1.45938e-05
1.45749e-05
1.46438e-05
1.47922e-05
1.50046e-05
1.52596e-05
1.55353e-05
1.58122e-05
1.60759e-05
1.63163e-05
1.65278e-05
1.67086e-05
1.68599e-05
1.69841e-05
1.70848e-05
1.71655e-05
1.72294e-05
1.72798e-05
1.73192e-05
1.73499e-05
1.73738e-05
1.73922e-05
1.74064e-05
1.74174e-05
1.74259e-05
1.74324e-05
1.74373e-05
1.74412e-05
1.74441e-05
1.74464e-05
1.74481e-05
1.74494e-05
1.74504e-05
1.74512e-05
1.74518e-05
1.74522e-05
1.74526e-05
1.74529e-05
1.74531e-05
1.74532e-05
1.74533e-05
1.74534e-05
1.74535e-05
1.74536e-05
1.74536e-05
1.74537e-05
1.74544e-05
1.74574e-05
1.03667e-05
1.06085e-05
1.08587e-05
1.11001e-05
1.12855e-05
1.14135e-05
1.14936e-05
1.15384e-05
1.15596e-05
1.15674e-05
1.15683e-05
1.15665e-05
1.15635e-05
1.15603e-05
1.15567e-05
1.15525e-05
1.1547e-05
1.15391e-05
1.15272e-05
1.15087e-05
1.14806e-05
1.14396e-05
1.13823e-05
1.13101e-05
1.12263e-05
1.11405e-05
1.10648e-05
1.1012e-05
1.09901e-05
1.09967e-05
1.1028e-05
1.10772e-05
1.1136e-05
1.11973e-05
1.12554e-05
1.13078e-05
1.13533e-05
1.1392e-05
1.1424e-05
1.14502e-05
1.14714e-05
1.14884e-05
1.1502e-05
1.15128e-05
1.15215e-05
1.15283e-05
1.15337e-05
1.15379e-05
1.15413e-05
1.15439e-05
1.15459e-05
1.15475e-05
1.15487e-05
1.15497e-05
1.15504e-05
1.1551e-05
1.15514e-05
1.15518e-05
1.15521e-05
1.15523e-05
1.15524e-05
1.15525e-05
1.15526e-05
1.15527e-05
1.15528e-05
1.15528e-05
1.15528e-05
1.15529e-05
1.15529e-05
1.15529e-05
1.15529e-05
1.15529e-05
1.15531e-05
1.15548e-05
1.15678e-05
1.01818e-05
1.02121e-05
1.02393e-05
1.02633e-05
1.02791e-05
1.02892e-05
1.02966e-05
1.03029e-05
1.03082e-05
1.03123e-05
1.03156e-05
1.03186e-05
1.03215e-05
1.03248e-05
1.03288e-05
1.03335e-05
1.03392e-05
1.0346e-05
1.03537e-05
1.03617e-05
1.03688e-05
1.03733e-05
1.03728e-05
1.03658e-05
1.03497e-05
1.03261e-05
1.02993e-05
1.02793e-05
1.02741e-05
1.02824e-05
1.02958e-05
1.03083e-05
1.03167e-05
1.03214e-05
1.03233e-05
1.03238e-05
1.03234e-05
1.03224e-05
1.03209e-05
1.03193e-05
1.03178e-05
1.03165e-05
1.03155e-05
1.03147e-05
1.03141e-05
1.03137e-05
1.03134e-05
1.03132e-05
1.0313e-05
1.03129e-05
1.03128e-05
1.03128e-05
1.03128e-05
1.03127e-05
1.03127e-05
1.03127e-05
1.03127e-05
1.03127e-05
1.03127e-05
1.03127e-05
1.03127e-05
1.03127e-05
1.03127e-05
1.03127e-05
1.03127e-05
1.03127e-05
1.03127e-05
1.03127e-05
1.03127e-05
1.03127e-05
1.03127e-05
1.03127e-05
1.03128e-05
1.03133e-05
1.03168e-05
1.01242e-05
1.01259e-05
1.01313e-05
1.01359e-05
1.01373e-05
1.01386e-05
1.01388e-05
1.0139e-05
1.01392e-05
1.01396e-05
1.01401e-05
1.01408e-05
1.0142e-05
1.01436e-05
1.01458e-05
1.01489e-05
1.0153e-05
1.01583e-05
1.01653e-05
1.01746e-05
1.01874e-05
1.02055e-05
1.02318e-05
1.02616e-05
1.02835e-05
1.02867e-05
1.02761e-05
1.02735e-05
1.02944e-05
1.03276e-05
1.03424e-05
1.03254e-05
1.02896e-05
1.02515e-05
1.02199e-05
1.01965e-05
1.01798e-05
1.01679e-05
1.01595e-05
1.01536e-05
1.01493e-05
1.01463e-05
1.0144e-05
1.01424e-05
1.01412e-05
1.01404e-05
1.01398e-05
1.01394e-05
1.01391e-05
1.01389e-05
1.01388e-05
1.01387e-05
1.01386e-05
1.01386e-05
1.01386e-05
1.01385e-05
1.01385e-05
1.01385e-05
1.01385e-05
1.01385e-05
1.01385e-05
1.01385e-05
1.01385e-05
1.01385e-05
1.01385e-05
1.01385e-05
1.01385e-05
1.01385e-05
1.01385e-05
1.01385e-05
1.01385e-05
1.01385e-05
1.01385e-05
1.01386e-05
1.01394e-05
1.01063e-05
1.00997e-05
1.0104e-05
1.01102e-05
1.01142e-05
1.01157e-05
1.01158e-05
1.01153e-05
1.01148e-05
1.01145e-05
1.01145e-05
1.01147e-05
1.01152e-05
1.0116e-05
1.01173e-05
1.01194e-05
1.01226e-05
1.01274e-05
1.01349e-05
1.01477e-05
1.01726e-05
1.0228e-05
1.03437e-05
1.05019e-05
1.06485e-05
1.07199e-05
1.0719e-05
1.07398e-05
1.08524e-05
1.0994e-05
1.10234e-05
1.08784e-05
1.06647e-05
1.04722e-05
1.03336e-05
1.02452e-05
1.01921e-05
1.01608e-05
1.01424e-05
1.01315e-05
1.01249e-05
1.01208e-05
1.01182e-05
1.01166e-05
1.01156e-05
1.01149e-05
1.01145e-05
1.01142e-05
1.0114e-05
1.01139e-05
1.01138e-05
1.01138e-05
1.01137e-05
1.01137e-05
1.01137e-05
1.01137e-05
1.01137e-05
1.01137e-05
1.01137e-05
1.01137e-05
1.01137e-05
1.01136e-05
1.01136e-05
1.01136e-05
1.01136e-05
1.01136e-05
1.01136e-05
1.01136e-05
1.01136e-05
1.01136e-05
1.01136e-05
1.01136e-05
1.01137e-05
1.01137e-05
1.01138e-05
1.00998e-05
1.00906e-05
1.00945e-05
1.01017e-05
1.01072e-05
1.01102e-05
1.01112e-05
1.01113e-05
1.01111e-05
1.01108e-05
1.01107e-05
1.01107e-05
1.01111e-05
1.01117e-05
1.01129e-05
1.01149e-05
1.01181e-05
1.01237e-05
1.01343e-05
1.01594e-05
1.02309e-05
1.04429e-05
1.09768e-05
1.17773e-05
1.26934e-05
1.32488e-05
1.31235e-05
1.28776e-05
1.31747e-05
1.38905e-05
1.41471e-05
1.32181e-05
1.21426e-05
1.13138e-05
1.07778e-05
1.04689e-05
1.03e-05
1.02104e-05
1.01635e-05
1.01389e-05
1.0126e-05
1.01191e-05
1.01153e-05
1.01132e-05
1.0112e-05
1.01113e-05
1.01109e-05
1.01106e-05
1.01105e-05
1.01104e-05
1.01103e-05
1.01103e-05
1.01103e-05
1.01103e-05
1.01103e-05
1.01103e-05
1.01103e-05
1.01103e-05
1.01103e-05
1.01103e-05
1.01103e-05
1.01103e-05
1.01103e-05
1.01103e-05
1.01103e-05
1.01103e-05
1.01103e-05
1.01103e-05
1.01103e-05
1.01103e-05
1.01103e-05
1.01103e-05
1.01103e-05
1.01103e-05
1.01103e-05
1.00969e-05
1.00865e-05
1.00904e-05
1.00979e-05
1.01042e-05
1.01079e-05
1.01097e-05
1.01102e-05
1.01103e-05
1.01102e-05
1.01101e-05
1.01102e-05
1.01105e-05
1.01112e-05
1.01124e-05
1.01145e-05
1.01183e-05
1.0126e-05
1.01457e-05
1.02111e-05
1.04471e-05
1.12322e-05
1.35081e-05
1.77684e-05
2.73787e-05
4.27693e-05
2.58702e-05
1.62714e-05
1.51906e-05
2.3095e-05
4.01471e-05
2.32022e-05
1.73734e-05
1.3929e-05
1.2014e-05
1.10582e-05
1.05808e-05
1.03424e-05
1.02243e-05
1.01663e-05
1.0138e-05
1.0124e-05
1.01171e-05
1.01137e-05
1.01119e-05
1.01109e-05
1.01104e-05
1.01102e-05
1.011e-05
1.01099e-05
1.01099e-05
1.01098e-05
1.01098e-05
1.01098e-05
1.01098e-05
1.01098e-05
1.01098e-05
1.01098e-05
1.01098e-05
1.01098e-05
1.01098e-05
1.01098e-05
1.01098e-05
1.01098e-05
1.01098e-05
1.01098e-05
1.01098e-05
1.01098e-05
1.01098e-05
1.01098e-05
1.01098e-05
1.01098e-05
1.01098e-05
1.01098e-05
1.01098e-05
1.00953e-05
1.00844e-05
1.00882e-05
1.00961e-05
1.01027e-05
1.01068e-05
1.0109e-05
1.01098e-05
1.01101e-05
1.01101e-05
1.01101e-05
1.01102e-05
1.01106e-05
1.01113e-05
1.01126e-05
1.0115e-05
1.01199e-05
1.01322e-05
1.0176e-05
1.03588e-05
1.10725e-05
1.33558e-05
1.93291e-05
5.98776e-05
2.29432e-05
1e-06
1e-06
1e-06
1e-06
1e-06
1e-06
2.0543e-05
5.06047e-05
2.11493e-05
1.47412e-05
1.22057e-05
1.11051e-05
1.05877e-05
1.03388e-05
1.0219e-05
1.01618e-05
1.01346e-05
1.01217e-05
1.01156e-05
1.01127e-05
1.01112e-05
1.01105e-05
1.01102e-05
1.011e-05
1.01099e-05
1.01098e-05
1.01098e-05
1.01098e-05
1.01098e-05
1.01098e-05
1.01098e-05
1.01098e-05
1.01098e-05
1.01098e-05
1.01098e-05
1.01098e-05
1.01098e-05
1.01098e-05
1.01098e-05
1.01098e-05
1.01098e-05
1.01098e-05
1.01098e-05
1.01098e-05
1.01098e-05
1.01098e-05
1.01098e-05
1.01098e-05
1.01098e-05
1.01098e-05
1.00944e-05
1.00831e-05
1.0087e-05
1.0095e-05
1.01018e-05
1.01062e-05
1.01086e-05
1.01097e-05
1.01101e-05
1.01102e-05
1.01103e-05
1.01105e-05
1.01109e-05
1.01116e-05
1.01131e-05
1.01159e-05
1.01224e-05
1.01443e-05
1.0242e-05
1.06967e-05
1.25777e-05
1.81784e-05
2.40493e-05
2.07404e-05
1e-06
1e-06
1e-06
1e-06
1e-06
1e-06
1e-06
1e-06
1.52204e-05
5.52404e-05
1.956e-05
1.39088e-05
1.18425e-05
1.09305e-05
1.05008e-05
1.02951e-05
1.01969e-05
1.01505e-05
1.01288e-05
1.01187e-05
1.0114e-05
1.01118e-05
1.01108e-05
1.01103e-05
1.011e-05
1.01099e-05
1.01098e-05
1.01098e-05
1.01098e-05
1.01098e-05
1.01098e-05
1.01098e-05
1.01098e-05
1.01098e-05
1.01098e-05
1.01098e-05
1.01098e-05
1.01098e-05
1.01098e-05
1.01098e-05
1.01098e-05
1.01098e-05
1.01098e-05
1.01098e-05
1.01098e-05
1.01098e-05
1.01098e-05
1.01098e-05
1.01098e-05
1.01098e-05
1.01097e-05
1.00938e-05
1.00823e-05
1.00863e-05
1.00944e-05
1.01013e-05
1.01059e-05
1.01085e-05
1.01097e-05
1.01102e-05
1.01104e-05
1.01106e-05
1.01108e-05
1.01112e-05
1.0112e-05
1.01136e-05
1.01169e-05
1.01261e-05
1.01637e-05
1.03454e-05
1.11709e-05
1.44706e-05
2.56043e-05
3.29812e-05
1e-06
1e-06
1e-06
1e-06
1e-06
1e-06
1e-06
1e-06
1e-06
1e-06
2.4124e-05
2.08811e-05
1.53848e-05
1.25765e-05
1.1295e-05
1.06804e-05
1.0382e-05
1.0238e-05
1.01695e-05
1.01374e-05
1.01225e-05
1.01157e-05
1.01125e-05
1.01111e-05
1.01104e-05
1.01101e-05
1.01099e-05
1.01098e-05
1.01098e-05
1.01098e-05
1.01098e-05
1.01098e-05
1.01098e-05
1.01098e-05
1.01098e-05
1.01098e-05
1.01098e-05
1.01098e-05
1.01098e-05
1.01098e-05
1.01098e-05
1.01098e-05
1.01098e-05
1.01098e-05
1.01098e-05
1.01098e-05
1.01098e-05
1.01098e-05
1.01098e-05
1.01098e-05
1.01098e-05
1.01097e-05
1.00935e-05
1.00818e-05
1.00858e-05
1.0094e-05
1.01011e-05
1.01058e-05
1.01084e-05
1.01097e-05
1.01104e-05
1.01106e-05
1.01108e-05
1.01111e-05
1.01116e-05
1.01125e-05
1.01142e-05
1.01182e-05
1.01318e-05
1.01989e-05
1.05489e-05
1.21406e-05
1.73904e-05
2.36234e-05
1.61562e-05
1e-06
1e-06
1e-06
1e-06
1e-06
1e-06
1e-06
1e-06
1e-06
1e-06
9.35934e-06
5.46698e-05
1.8894e-05
1.35226e-05
1.16599e-05
1.08424e-05
1.04572e-05
1.02731e-05
1.01857e-05
1.01447e-05
1.01258e-05
1.01171e-05
1.01132e-05
1.01113e-05
1.01105e-05
1.01101e-05
1.01099e-05
1.01098e-05
1.01098e-05
1.01098e-05
1.01098e-05
1.01098e-05
1.01098e-05
1.01098e-05
1.01098e-05
1.01098e-05
1.01098e-05
1.01098e-05
1.01098e-05
1.01098e-05
1.01098e-05
1.01098e-05
1.01098e-05
1.01098e-05
1.01098e-05
1.01098e-05
1.01098e-05
1.01098e-05
1.01098e-05
1.01098e-05
1.01098e-05
1.01097e-05
1.00933e-05
1.00816e-05
1.00856e-05
1.00938e-05
1.01009e-05
1.01057e-05
1.01084e-05
1.01098e-05
1.01104e-05
1.01108e-05
1.0111e-05
1.01113e-05
1.01118e-05
1.01127e-05
1.01146e-05
1.01188e-05
1.01328e-05
1.01984e-05
1.05167e-05
1.18646e-05
1.69546e-05
4.94137e-05
1e-06
1e-06
1e-06
1e-06
1e-06
1e-06
1e-06
1e-06
1e-06
1e-06
1e-06
1e-06
4.05923e-05
1.88084e-05
1.37348e-05
1.18074e-05
1.09252e-05
1.04999e-05
1.02939e-05
1.01955e-05
1.01492e-05
1.01278e-05
1.0118e-05
1.01135e-05
1.01115e-05
1.01106e-05
1.01102e-05
1.011e-05
1.01099e-05
1.01098e-05
1.01098e-05
1.01098e-05
1.01098e-05
1.01098e-05
1.01098e-05
1.01098e-05
1.01098e-05
1.01098e-05
1.01098e-05
1.01098e-05
1.01098e-05
1.01098e-05
1.01098e-05
1.01098e-05
1.01098e-05
1.01098e-05
1.01098e-05
1.01098e-05
1.01098e-05
1.01098e-05
1.01098e-05
1.01098e-05
1.01097e-05
1.00932e-05
1.00815e-05
1.00855e-05
1.00938e-05
1.01009e-05
1.01057e-05
1.01084e-05
1.01098e-05
1.01105e-05
1.01108e-05
1.01111e-05
1.01114e-05
1.01119e-05
1.01128e-05
1.01147e-05
1.01187e-05
1.01302e-05
1.0172e-05
1.03182e-05
1.081e-05
1.53191e-05
4.57306e-05
1e-06
1e-06
1e-06
1e-06
1e-06
1e-06
1e-06
1e-06
1e-06
1e-06
1e-06
1e-06
3.6488e-05
1.82179e-05
1.35874e-05
1.17689e-05
1.09173e-05
1.04999e-05
1.02953e-05
1.01965e-05
1.01498e-05
1.01281e-05
1.01182e-05
1.01136e-05
1.01116e-05
1.01106e-05
1.01102e-05
1.011e-05
1.01099e-05
1.01098e-05
1.01098e-05
1.01098e-05
1.01098e-05
1.01098e-05
1.01098e-05
1.01098e-05
1.01098e-05
1.01098e-05
1.01098e-05
1.01098e-05
1.01098e-05
1.01098e-05
1.01098e-05
1.01098e-05
1.01098e-05
1.01098e-05
1.01098e-05
1.01098e-05
1.01098e-05
1.01098e-05
1.01098e-05
1.01098e-05
1.01097e-05
1.00933e-05
1.00816e-05
1.00856e-05
1.00938e-05
1.0101e-05
1.01057e-05
1.01084e-05
1.01098e-05
1.01104e-05
1.01108e-05
1.0111e-05
1.01113e-05
1.01118e-05
1.01127e-05
1.01146e-05
1.01188e-05
1.01328e-05
1.01974e-05
1.05077e-05
1.18612e-05
1.70374e-05
4.94013e-05
1e-06
1e-06
1e-06
1e-06
1e-06
1e-06
1e-06
1e-06
1e-06
1e-06
1e-06
1e-06
4.05984e-05
1.87697e-05
1.37233e-05
1.18115e-05
1.09331e-05
1.05067e-05
1.02984e-05
1.01981e-05
1.01506e-05
1.01285e-05
1.01183e-05
1.01137e-05
1.01116e-05
1.01106e-05
1.01102e-05
1.011e-05
1.01099e-05
1.01098e-05
1.01098e-05
1.01098e-05
1.01098e-05
1.01098e-05
1.01098e-05
1.01098e-05
1.01098e-05
1.01098e-05
1.01098e-05
1.01098e-05
1.01098e-05
1.01098e-05
1.01098e-05
1.01098e-05
1.01098e-05
1.01098e-05
1.01098e-05
1.01098e-05
1.01098e-05
1.01098e-05
1.01098e-05
1.01098e-05
1.01097e-05
1.00935e-05
1.00818e-05
1.00858e-05
1.0094e-05
1.01011e-05
1.01057e-05
1.01084e-05
1.01097e-05
1.01103e-05
1.01106e-05
1.01108e-05
1.01111e-05
1.01115e-05
1.01124e-05
1.01142e-05
1.01182e-05
1.01321e-05
1.02007e-05
1.05551e-05
1.21384e-05
1.73178e-05
2.35433e-05
1.61848e-05
1e-06
1e-06
1e-06
1e-06
1e-06
1e-06
1e-06
1e-06
1e-06
1e-06
9.35989e-06
5.47226e-05
1.88755e-05
1.35822e-05
1.17121e-05
1.08797e-05
1.04811e-05
1.02871e-05
1.01934e-05
1.01488e-05
1.01278e-05
1.01181e-05
1.01136e-05
1.01116e-05
1.01106e-05
1.01102e-05
1.011e-05
1.01099e-05
1.01098e-05
1.01098e-05
1.01098e-05
1.01098e-05
1.01098e-05
1.01098e-05
1.01098e-05
1.01098e-05
1.01098e-05
1.01098e-05
1.01098e-05
1.01098e-05
1.01098e-05
1.01098e-05
1.01098e-05
1.01098e-05
1.01098e-05
1.01098e-05
1.01098e-05
1.01098e-05
1.01098e-05
1.01098e-05
1.01098e-05
1.01097e-05
1.00938e-05
1.00823e-05
1.00863e-05
1.00944e-05
1.01014e-05
1.01059e-05
1.01084e-05
1.01097e-05
1.01102e-05
1.01104e-05
1.01105e-05
1.01108e-05
1.01112e-05
1.0112e-05
1.01136e-05
1.01169e-05
1.01264e-05
1.01658e-05
1.03549e-05
1.11747e-05
1.43845e-05
2.53533e-05
3.30124e-05
1e-06
1e-06
1e-06
1e-06
1e-06
1e-06
1e-06
1e-06
1e-06
1e-06
2.41364e-05
2.09497e-05
1.53763e-05
1.26846e-05
1.13881e-05
1.07441e-05
1.04212e-05
1.02605e-05
1.01817e-05
1.01438e-05
1.01257e-05
1.01172e-05
1.01133e-05
1.01114e-05
1.01106e-05
1.01102e-05
1.011e-05
1.01099e-05
1.01098e-05
1.01098e-05
1.01098e-05
1.01098e-05
1.01098e-05
1.01098e-05
1.01098e-05
1.01098e-05
1.01098e-05
1.01098e-05
1.01098e-05
1.01098e-05
1.01098e-05
1.01098e-05
1.01098e-05
1.01098e-05
1.01098e-05
1.01098e-05
1.01098e-05
1.01098e-05
1.01098e-05
1.01098e-05
1.01098e-05
1.01097e-05
1.00944e-05
1.00831e-05
1.0087e-05
1.0095e-05
1.01018e-05
1.01062e-05
1.01085e-05
1.01096e-05
1.011e-05
1.01102e-05
1.01103e-05
1.01104e-05
1.01108e-05
1.01116e-05
1.0113e-05
1.01158e-05
1.01224e-05
1.01449e-05
1.02458e-05
1.07076e-05
1.25622e-05
1.79809e-05
2.374e-05
2.07673e-05
1e-06
1e-06
1e-06
1e-06
1e-06
1e-06
1e-06
1e-06
1.52194e-05
5.53232e-05
1.96254e-05
1.40218e-05
1.19782e-05
1.10394e-05
1.05747e-05
1.03404e-05
1.02228e-05
1.01646e-05
1.01361e-05
1.01224e-05
1.01158e-05
1.01127e-05
1.01112e-05
1.01105e-05
1.01101e-05
1.01099e-05
1.01099e-05
1.01098e-05
1.01098e-05
1.01098e-05
1.01098e-05
1.01098e-05
1.01098e-05
1.01098e-05
1.01098e-05
1.01098e-05
1.01098e-05
1.01098e-05
1.01098e-05
1.01098e-05
1.01098e-05
1.01098e-05
1.01098e-05
1.01098e-05
1.01098e-05
1.01098e-05
1.01098e-05
1.01098e-05
1.01098e-05
1.01098e-05
1.01097e-05
1.00953e-05
1.00844e-05
1.00882e-05
1.0096e-05
1.01026e-05
1.01067e-05
1.01088e-05
1.01097e-05
1.011e-05
1.011e-05
1.011e-05
1.01102e-05
1.01105e-05
1.01112e-05
1.01126e-05
1.0115e-05
1.01198e-05
1.01324e-05
1.01782e-05
1.03701e-05
1.10827e-05
1.32672e-05
1.89967e-05
5.99449e-05
2.29791e-05
1e-06
1e-06
1e-06
1e-06
1e-06
1e-06
2.05494e-05
5.06524e-05
2.12964e-05
1.48688e-05
1.24147e-05
1.12757e-05
1.07055e-05
1.04128e-05
1.02623e-05
1.01858e-05
1.01474e-05
1.01283e-05
1.01189e-05
1.01143e-05
1.0112e-05
1.01109e-05
1.01104e-05
1.01101e-05
1.01099e-05
1.01099e-05
1.01098e-05
1.01098e-05
1.01098e-05
1.01098e-05
1.01098e-05
1.01098e-05
1.01098e-05
1.01098e-05
1.01098e-05
1.01098e-05
1.01098e-05
1.01098e-05
1.01098e-05
1.01098e-05
1.01098e-05
1.01098e-05
1.01098e-05
1.01098e-05
1.01098e-05
1.01098e-05
1.01098e-05
1.01098e-05
1.01098e-05
1.01097e-05
1.00969e-05
1.00865e-05
1.00903e-05
1.00978e-05
1.0104e-05
1.01077e-05
1.01094e-05
1.011e-05
1.01101e-05
1.011e-05
1.011e-05
1.01101e-05
1.01104e-05
1.01111e-05
1.01123e-05
1.01144e-05
1.01182e-05
1.01259e-05
1.01461e-05
1.02148e-05
1.04583e-05
1.12345e-05
1.34213e-05
1.75177e-05
2.71037e-05
4.28083e-05
2.59005e-05
1.62993e-05
1.52155e-05
2.31282e-05
4.01944e-05
2.33546e-05
1.74866e-05
1.40774e-05
1.22505e-05
1.12665e-05
1.07313e-05
1.044e-05
1.02831e-05
1.01996e-05
1.0156e-05
1.01335e-05
1.01219e-05
1.0116e-05
1.0113e-05
1.01115e-05
1.01107e-05
1.01103e-05
1.01101e-05
1.01099e-05
1.01099e-05
1.01098e-05
1.01098e-05
1.01098e-05
1.01098e-05
1.01098e-05
1.01098e-05
1.01098e-05
1.01098e-05
1.01098e-05
1.01098e-05
1.01098e-05
1.01098e-05
1.01098e-05
1.01098e-05
1.01098e-05
1.01098e-05
1.01098e-05
1.01098e-05
1.01098e-05
1.01098e-05
1.01098e-05
1.01098e-05
1.01098e-05
1.01098e-05
1.00999e-05
1.00905e-05
1.00942e-05
1.01012e-05
1.01067e-05
1.01096e-05
1.01107e-05
1.01108e-05
1.01106e-05
1.01103e-05
1.01102e-05
1.01103e-05
1.01107e-05
1.01113e-05
1.01125e-05
1.01145e-05
1.01177e-05
1.01232e-05
1.01338e-05
1.01595e-05
1.02345e-05
1.04546e-05
1.09783e-05
1.1723e-05
1.25977e-05
1.31514e-05
1.31088e-05
1.28876e-05
1.31832e-05
1.38943e-05
1.41722e-05
1.32845e-05
1.23095e-05
1.15178e-05
1.09676e-05
1.06148e-05
1.03994e-05
1.02724e-05
1.01997e-05
1.01591e-05
1.01367e-05
1.01245e-05
1.01179e-05
1.01144e-05
1.01124e-05
1.01114e-05
1.01108e-05
1.01104e-05
1.01102e-05
1.01101e-05
1.01101e-05
1.011e-05
1.011e-05
1.011e-05
1.011e-05
1.011e-05
1.011e-05
1.011e-05
1.011e-05
1.011e-05
1.011e-05
1.011e-05
1.011e-05
1.011e-05
1.011e-05
1.011e-05
1.011e-05
1.011e-05
1.011e-05
1.011e-05
1.011e-05
1.011e-05
1.011e-05
1.011e-05
1.011e-05
1.01064e-05
1.00994e-05
1.0103e-05
1.01086e-05
1.01122e-05
1.01135e-05
1.01136e-05
1.01132e-05
1.01127e-05
1.01125e-05
1.01124e-05
1.01126e-05
1.01131e-05
1.01139e-05
1.01153e-05
1.01173e-05
1.01203e-05
1.0125e-05
1.01324e-05
1.01451e-05
1.01705e-05
1.02278e-05
1.03427e-05
1.04924e-05
1.0636e-05
1.07184e-05
1.07397e-05
1.0773e-05
1.08825e-05
1.10194e-05
1.10695e-05
1.09619e-05
1.07771e-05
1.05875e-05
1.04313e-05
1.0317e-05
1.02395e-05
1.01896e-05
1.01586e-05
1.01398e-05
1.01285e-05
1.01219e-05
1.01179e-05
1.01156e-05
1.01142e-05
1.01133e-05
1.01128e-05
1.01125e-05
1.01123e-05
1.01121e-05
1.0112e-05
1.0112e-05
1.01119e-05
1.01119e-05
1.01119e-05
1.01119e-05
1.01119e-05
1.01119e-05
1.01119e-05
1.01119e-05
1.01119e-05
1.01119e-05
1.01118e-05
1.01118e-05
1.01118e-05
1.01118e-05
1.01118e-05
1.01118e-05
1.01118e-05
1.01118e-05
1.01118e-05
1.01118e-05
1.01118e-05
1.01118e-05
1.01118e-05
1.01246e-05
1.01252e-05
1.01279e-05
1.01299e-05
1.01294e-05
1.01297e-05
1.01295e-05
1.01295e-05
1.01297e-05
1.013e-05
1.01304e-05
1.01312e-05
1.01323e-05
1.01338e-05
1.0136e-05
1.01389e-05
1.01429e-05
1.0148e-05
1.01548e-05
1.01639e-05
1.01764e-05
1.01946e-05
1.02212e-05
1.02511e-05
1.02751e-05
1.02836e-05
1.02796e-05
1.02815e-05
1.0304e-05
1.03399e-05
1.03637e-05
1.0359e-05
1.03305e-05
1.0291e-05
1.02514e-05
1.02176e-05
1.01914e-05
1.01722e-05
1.01587e-05
1.01495e-05
1.01432e-05
1.01389e-05
1.0136e-05
1.01339e-05
1.01325e-05
1.01315e-05
1.01309e-05
1.01304e-05
1.01301e-05
1.01299e-05
1.01297e-05
1.01296e-05
1.01295e-05
1.01295e-05
1.01294e-05
1.01294e-05
1.01294e-05
1.01293e-05
1.01293e-05
1.01293e-05
1.01293e-05
1.01293e-05
1.01293e-05
1.01293e-05
1.01293e-05
1.01293e-05
1.01293e-05
1.01293e-05
1.01293e-05
1.01293e-05
1.01293e-05
1.01293e-05
1.01293e-05
1.01293e-05
1.01293e-05
1.01835e-05
1.02104e-05
1.0228e-05
1.02417e-05
1.025e-05
1.02558e-05
1.0261e-05
1.02662e-05
1.02709e-05
1.02749e-05
1.02782e-05
1.02813e-05
1.02843e-05
1.02877e-05
1.02916e-05
1.02964e-05
1.03021e-05
1.03088e-05
1.03165e-05
1.03245e-05
1.03317e-05
1.03366e-05
1.03369e-05
1.03315e-05
1.03178e-05
1.02978e-05
1.02747e-05
1.0258e-05
1.02555e-05
1.02663e-05
1.02828e-05
1.02983e-05
1.03078e-05
1.03109e-05
1.03093e-05
1.03056e-05
1.03012e-05
1.02967e-05
1.02925e-05
1.02889e-05
1.02859e-05
1.02836e-05
1.02817e-05
1.02804e-05
1.02793e-05
1.02786e-05
1.0278e-05
1.02776e-05
1.02773e-05
1.02771e-05
1.02769e-05
1.02768e-05
1.02767e-05
1.02767e-05
1.02766e-05
1.02766e-05
1.02766e-05
1.02766e-05
1.02766e-05
1.02766e-05
1.02765e-05
1.02765e-05
1.02765e-05
1.02765e-05
1.02765e-05
1.02765e-05
1.02765e-05
1.02765e-05
1.02765e-05
1.02765e-05
1.02765e-05
1.02765e-05
1.02765e-05
1.02765e-05
1.02765e-05
1.03716e-05
1.06055e-05
1.0829e-05
1.1037e-05
1.1196e-05
1.13125e-05
1.13887e-05
1.14333e-05
1.14559e-05
1.14654e-05
1.1468e-05
1.14675e-05
1.14658e-05
1.14637e-05
1.14612e-05
1.14581e-05
1.14539e-05
1.14474e-05
1.14372e-05
1.14207e-05
1.13951e-05
1.13572e-05
1.13036e-05
1.12355e-05
1.11562e-05
1.10751e-05
1.10037e-05
1.09544e-05
1.09351e-05
1.09432e-05
1.09751e-05
1.10236e-05
1.10807e-05
1.1139e-05
1.11933e-05
1.12413e-05
1.12824e-05
1.13168e-05
1.13451e-05
1.13679e-05
1.13862e-05
1.14009e-05
1.14125e-05
1.14218e-05
1.14292e-05
1.14351e-05
1.14397e-05
1.14434e-05
1.14462e-05
1.14484e-05
1.14502e-05
1.14516e-05
1.14526e-05
1.14535e-05
1.14541e-05
1.14546e-05
1.1455e-05
1.14553e-05
1.14555e-05
1.14557e-05
1.14558e-05
1.1456e-05
1.1456e-05
1.14561e-05
1.14562e-05
1.14562e-05
1.14562e-05
1.14562e-05
1.14563e-05
1.14563e-05
1.14563e-05
1.14563e-05
1.14563e-05
1.14564e-05
1.14567e-05
1.1383e-05
1.30832e-05
1.48922e-05
1.66922e-05
1.74429e-05
1.77018e-05
1.77359e-05
1.76817e-05
1.76039e-05
1.75267e-05
1.74555e-05
1.73884e-05
1.73217e-05
1.72509e-05
1.71718e-05
1.70797e-05
1.69699e-05
1.68372e-05
1.66764e-05
1.64833e-05
1.62561e-05
1.59957e-05
1.57084e-05
1.54089e-05
1.51192e-05
1.48663e-05
1.46756e-05
1.45668e-05
1.45476e-05
1.46158e-05
1.47634e-05
1.49749e-05
1.5229e-05
1.55037e-05
1.57797e-05
1.60423e-05
1.62816e-05
1.64921e-05
1.66721e-05
1.68225e-05
1.6946e-05
1.70461e-05
1.71263e-05
1.71898e-05
1.72399e-05
1.7279e-05
1.73095e-05
1.73332e-05
1.73515e-05
1.73657e-05
1.73765e-05
1.73849e-05
1.73914e-05
1.73964e-05
1.74002e-05
1.74031e-05
1.74053e-05
1.7407e-05
1.74083e-05
1.74094e-05
1.74101e-05
1.74107e-05
1.74112e-05
1.74115e-05
1.74118e-05
1.7412e-05
1.74121e-05
1.74123e-05
1.74123e-05
1.74124e-05
1.74125e-05
1.74125e-05
1.74126e-05
1.74132e-05
1.74178e-05
)
;

boundaryField
{
    ibCylinder
    {
        type            immersedBoundaryNutWallFunction;
        patchType       immersedBoundary;
        blending        stepwise;
        value           nonuniform List<scalar> 0();
    }
    in
    {
        type            zeroGradient;
    }
    out
    {
        type            zeroGradient;
    }
    top
    {
        type            zeroGradient;
    }
    bottom
    {
        type            zeroGradient;
    }
    frontAndBack
    {
        type            empty;
    }
}


// ************************************************************************* //
