/*--------------------------------*- C++ -*----------------------------------*\
| =========                 |                                                 |
| \\      /  F ield         | OpenFOAM: The Open Source CFD Toolbox           |
|  \\    /   O peration     | Version:  2206                                  |
|   \\  /    A nd           | Website:  www.openfoam.com                      |
|    \\/     M anipulation  |                                                 |
\*---------------------------------------------------------------------------*/
FoamFile
{
    version     2.0;
    format      ascii;
    arch        "LSB;label=32;scalar=64";
    class       volScalarField;
    location    "0.1";
    object      p;
}
// * * * * * * * * * * * * * * * * * * * * * * * * * * * * * * * * * * * * * //

dimensions      [0 2 -2 0 0 0 0];

internalField   nonuniform List<scalar> 
1875
(
2.49234
2.11405
1.86899
1.77812
1.72947
1.69071
1.66018
1.63479
1.6117
1.58939
1.56718
1.54471
1.52178
1.49818
1.47371
1.44812
1.42115
1.39251
1.36193
1.32916
1.29404
1.25652
1.21678
1.17522
1.1325
1.08962
1.04774
1.00782
0.970794
0.937312
0.907076
0.879707
0.85444
0.830558
0.807518
0.784923
0.762546
0.740317
0.718243
0.696359
0.674702
0.653293
0.632143
0.611249
0.5906
0.570179
0.549965
0.529932
0.510056
0.490315
0.470686
0.451151
0.431693
0.4123
0.392958
0.373659
0.354395
0.335159
0.315945
0.29675
0.277569
0.258399
0.239238
0.220084
0.200935
0.18179
0.162649
0.14351
0.124373
0.105237
0.0861021
0.066968
0.0478342
0.0287003
0.00956682
2.12041
1.97095
1.85071
1.77983
1.73231
1.69487
1.66402
1.63792
1.61418
1.59139
1.5689
1.54633
1.52347
1.50008
1.47592
1.45073
1.42424
1.39615
1.36614
1.33391
1.29923
1.26196
1.22212
1.18001
1.13623
1.09198
1.04856
1.00704
0.968662
0.933991
0.902924
0.875034
0.849526
0.825617
0.802758
0.780508
0.758578
0.736849
0.715275
0.693867
0.672643
0.651611
0.630781
0.61015
0.589718
0.569475
0.549404
0.529488
0.509707
0.49004
0.47047
0.450981
0.43156
0.412195
0.392876
0.373595
0.354345
0.33512
0.315915
0.296726
0.27755
0.258384
0.239226
0.220074
0.200928
0.181785
0.162645
0.143507
0.12437
0.105235
0.0861006
0.0669669
0.0478335
0.0287
0.00956681
1.94616
1.89833
1.83337
1.77667
1.73377
1.69834
1.66809
1.64163
1.61726
1.59395
1.57115
1.54854
1.52588
1.50286
1.47918
1.45458
1.42881
1.40151
1.37227
1.34073
1.30654
1.2694
1.22924
1.18627
1.14107
1.09486
1.04909
1.00514
0.964697
0.928471
0.896448
0.867706
0.841745
0.817933
0.79546
0.77383
0.752616
0.73162
0.710767
0.690035
0.669427
0.648961
0.628628
0.608409
0.588316
0.568349
0.548505
0.528773
0.50914
0.489592
0.470116
0.450701
0.431339
0.412021
0.392739
0.373488
0.35426
0.335053
0.315863
0.296685
0.277518
0.258359
0.239206
0.220059
0.200916
0.181775
0.162637
0.143501
0.124366
0.105231
0.086098
0.066965
0.0478322
0.0286993
0.00956664
1.86733
1.84659
1.8056
1.76271
1.72683
1.69622
1.66833
1.64272
1.61857
1.59539
1.57284
1.55066
1.52855
1.50611
1.4831
1.45926
1.43434
1.40794
1.37958
1.34883
1.31518
1.27814
1.23748
1.19361
1.14693
1.09819
1.04874
1.00178
0.958355
0.91936
0.88593
0.85649
0.830476
0.807372
0.786087
0.765659
0.745553
0.72555
0.705571
0.68561
0.665679
0.645791
0.625969
0.606218
0.586531
0.566906
0.547345
0.527847
0.508408
0.489014
0.469658
0.450338
0.431051
0.411793
0.392559
0.373346
0.354148
0.334965
0.315793
0.29663
0.277474
0.258325
0.239179
0.220037
0.200898
0.181762
0.162626
0.143492
0.124359
0.105226
0.0860941
0.0669622
0.0478303
0.0286982
0.00956626
1.8139
1.80297
1.77719
1.74658
1.71748
1.69072
1.66563
1.64158
1.61844
1.59609
1.57429
1.55281
1.53139
1.50973
1.48757
1.46472
1.44086
1.41559
1.38845
1.35883
1.32596
1.28904
1.24756
1.20248
1.1531
1.09994
1.04473
0.99434
0.947309
0.904827
0.870664
0.840808
0.815228
0.793702
0.774487
0.756135
0.737663
0.718978
0.700074
0.68101
0.661828
0.642555
0.62325
0.603956
0.584669
0.565385
0.546108
0.526841
0.507588
0.48835
0.469126
0.449914
0.430713
0.411525
0.392347
0.373178
0.354016
0.33486
0.31571
0.296564
0.277423
0.258283
0.239146
0.220011
0.200878
0.181745
0.162613
0.143482
0.124351
0.10522
0.0860893
0.0669588
0.0478279
0.0286968
0.00956578
1.7758
1.76959
1.75263
1.7302
1.70672
1.68375
1.66131
1.63925
1.61763
1.59644
1.57558
1.55488
1.53424
1.51352
1.49247
1.47089
1.44849
1.42487
1.39946
1.37147
1.33981
1.30302
1.25966
1.21301
1.15932
1.09668
1.03717
0.985753
0.932536
0.884881
0.851939
0.818762
0.794768
0.777286
0.760597
0.745225
0.729105
0.712044
0.694353
0.676288
0.657939
0.639371
0.620649
0.601824
0.582922
0.563956
0.54494
0.525885
0.506801
0.487705
0.468602
0.449491
0.430373
0.411251
0.392127
0.373001
0.353874
0.334747
0.31562
0.296493
0.277366
0.258238
0.23911
0.219983
0.200855
0.181727
0.162599
0.14347
0.124342
0.105213
0.086084
0.0669548
0.0478252
0.0286953
0.0095652
1.74825
1.74433
1.73238
1.7153
1.69622
1.67654
1.65657
1.63643
1.61631
1.59633
1.57652
1.55686
1.53723
1.51758
1.49786
1.47786
1.4573
1.43582
1.41277
1.38721
1.35757
1.32123
1.27539
1.22388
1.17505
1.10196
1.03008
0.992504
0.920996
0.860477
0.855935
0.803439
0.776995
0.761185
0.747047
0.733564
0.720233
0.705041
0.688575
0.671552
0.654067
0.636211
0.618075
0.599725
0.581209
0.56256
0.543805
0.524966
0.506062
0.487109
0.46812
0.449101
0.430059
0.410997
0.391921
0.372833
0.353739
0.334639
0.315533
0.296423
0.277309
0.258192
0.239073
0.219953
0.200831
0.181707
0.162583
0.143458
0.124332
0.105205
0.0860782
0.0669505
0.0478223
0.0286935
0.00956455
1.72789
1.72511
1.7161
1.7026
1.6868
1.66978
1.65194
1.63353
1.61484
1.59607
1.57736
1.55874
1.54021
1.52181
1.50357
1.48537
1.46702
1.44822
1.42833
1.40634
1.38002
1.34343
1.29719
1.24573
1.21388
0
0
0
0
0
0
0.738629
0.753924
0.743263
0.732808
0.721722
0.71115
0.69828
0.6831
0.667034
0.650385
0.633219
0.615645
0.597751
0.579603
0.561254
0.542744
0.524106
0.505367
0.486548
0.467666
0.448735
0.429763
0.410759
0.39173
0.372681
0.353617
0.33454
0.315453
0.296358
0.277257
0.25815
0.239039
0.219925
0.200808
0.181689
0.162568
0.143446
0.124322
0.105198
0.0860722
0.0669461
0.0478192
0.0286917
0.00956389
1.71281
1.71063
1.70341
1.69231
1.67889
1.66393
1.64781
1.63087
1.61344
1.59579
1.57809
1.56047
1.54302
1.52592
1.50924
1.49301
1.47719
1.46166
1.44596
1.42923
1.40835
1.36849
1.29677
1.24596
0
0
0
0
0
0
0
0
0.734355
0.721849
0.717025
0.710745
0.702274
0.691778
0.678103
0.662963
0.647063
0.63053
0.613469
0.595989
0.578174
0.560094
0.541803
0.523343
0.504749
0.486048
0.467262
0.448408
0.429499
0.410546
0.391559
0.372543
0.353506
0.33445
0.315381
0.2963
0.277209
0.258111
0.239008
0.219899
0.200787
0.181672
0.162554
0.143434
0.124313
0.10519
0.0860665
0.0669418
0.0478162
0.0286899
0.00956328
1.70188
1.70002
1.69393
1.68445
1.6727
1.65924
1.64444
1.62865
1.61225
1.59552
1.5787
1.56196
1.54553
1.52964
1.51448
1.50023
1.4871
1.47535
1.46501
1.45637
1.44544
1.42192
1.32387
0
0
0
0
0
0
0
0
0
0
0.709282
0.70065
0.700742
0.695044
0.685935
0.673702
0.659458
0.644261
0.628274
0.611648
0.594517
0.576984
0.559131
0.541022
0.522711
0.504237
0.485634
0.466927
0.448136
0.429279
0.410369
0.391415
0.372427
0.353412
0.334374
0.315319
0.296249
0.277168
0.258078
0.23898
0.219876
0.200768
0.181656
0.162541
0.143424
0.124304
0.105183
0.0860612
0.0669378
0.0478134
0.0286883
0.00956269
1.69442
1.69276
1.6874
1.67894
1.66827
1.65583
1.64195
1.627
1.61135
1.59531
1.57916
1.56313
1.54753
1.53264
1.51875
1.50625
1.49562
1.48753
1.48269
1.48173
1.48172
1.41888
1.29623
0
0
0
0
0
0
0
0
0
0
0.69869
0.6902
0.690674
0.689217
0.681527
0.670031
0.656676
0.642068
0.626553
0.610266
0.593404
0.576087
0.558406
0.540436
0.522236
0.503852
0.485322
0.466674
0.447931
0.429113
0.410234
0.391306
0.372339
0.35334
0.334316
0.315271
0.29621
0.277135
0.25805
0.238957
0.219857
0.200752
0.181643
0.16253
0.143414
0.124297
0.105177
0.0860562
0.0669339
0.0478107
0.0286867
0.00956212
1.69006
1.68854
1.68358
1.67568
1.6656
1.65375
1.64042
1.62597
1.61078
1.59518
1.57945
1.56388
1.54881
1.53458
1.52156
1.51026
1.50138
1.49601
1.49553
1.50129
1.50992
1.41686
0
0
0
0
0
0
0
0
0
0
0
0
0.684488
0.684091
0.685069
0.678589
0.667488
0.654824
0.640616
0.625457
0.609398
0.592707
0.575526
0.557955
0.540071
0.52194
0.503612
0.485127
0.466515
0.447803
0.429008
0.410149
0.391236
0.372282
0.353293
0.334276
0.315238
0.296182
0.277112
0.258031
0.238941
0.219843
0.20074
0.181632
0.162521
0.143406
0.12429
0.105172
0.0860517
0.0669305
0.0478082
0.0286852
0.00956161
1.68862
1.68714
1.68231
1.67458
1.66469
1.65303
1.63989
1.62561
1.61058
1.59512
1.57954
1.56413
1.54924
1.53524
1.52252
1.51164
1.50339
1.49892
1.49983
1.50744
1.51242
1.4277
0
0
0
0
0
0
0
0
0
0
0
0
0.683942
0.68267
0.683539
0.677646
0.666684
0.6542
0.640109
0.625092
0.609101
0.592467
0.575331
0.557797
0.539944
0.521836
0.503527
0.485057
0.466458
0.447756
0.428969
0.410116
0.391209
0.372258
0.353273
0.334259
0.315223
0.296168
0.2771
0.25802
0.23893
0.219834
0.200731
0.181625
0.162514
0.143401
0.124285
0.105167
0.086048
0.0669275
0.0478061
0.0286839
0.00956116
1.69002
1.68848
1.68352
1.67563
1.66555
1.6537
1.64037
1.62592
1.61074
1.59513
1.57941
1.56384
1.54877
1.53453
1.52151
1.51021
1.50134
1.49595
1.49546
1.50121
1.50992
1.41671
0
0
0
0
0
0
0
0
0
0
0
0
0.684444
0.684054
0.685024
0.678551
0.667464
0.654806
0.640595
0.625441
0.609382
0.592693
0.575511
0.557941
0.540059
0.521929
0.503601
0.485116
0.466505
0.447792
0.428998
0.410138
0.391225
0.37227
0.35328
0.334263
0.315225
0.296168
0.277098
0.258017
0.238927
0.21983
0.200727
0.18162
0.16251
0.143397
0.124281
0.105164
0.0860451
0.0669251
0.0478043
0.0286828
0.00956079
1.69432
1.69266
1.6873
1.67884
1.66816
1.65573
1.64185
1.6269
1.61126
1.59523
1.57907
1.56305
1.54744
1.53255
1.51867
1.50617
1.49553
1.48744
1.48258
1.48162
1.48166
1.41888
1.2964
0
0
0
0
0
0
0
0
0
0
0.698522
0.690117
0.690596
0.689136
0.681453
0.669977
0.656637
0.642026
0.626518
0.610233
0.593374
0.576057
0.558379
0.540411
0.522213
0.50383
0.4853
0.466652
0.44791
0.429092
0.410212
0.391283
0.372315
0.353315
0.33429
0.315244
0.296182
0.277108
0.258024
0.238931
0.219832
0.200728
0.181619
0.162508
0.143395
0.124279
0.105162
0.086043
0.0669233
0.0478029
0.0286819
0.00956051
1.70173
1.69987
1.69378
1.68429
1.67255
1.6591
1.64429
1.62851
1.61212
1.59539
1.57857
1.56183
1.5454
1.52952
1.51435
1.5001
1.48697
1.47522
1.46488
1.45624
1.44533
1.42184
1.32382
0
0
0
0
0
0
0
0
0
0
0.709134
0.700553
0.700627
0.694938
0.685856
0.673625
0.65939
0.644204
0.628222
0.6116
0.594471
0.57694
0.55909
0.540985
0.522676
0.504204
0.485602
0.466895
0.448105
0.429247
0.410336
0.391382
0.372392
0.353375
0.334336
0.31528
0.29621
0.277128
0.258038
0.238941
0.219839
0.200732
0.181622
0.162509
0.143395
0.124278
0.105161
0.0860419
0.0669222
0.0478019
0.0286813
0.00956031
1.71261
1.71044
1.70321
1.69211
1.6787
1.66374
1.64763
1.63069
1.61327
1.59562
1.57792
1.5603
1.54286
1.52576
1.50908
1.49285
1.47703
1.4615
1.44579
1.42906
1.4082
1.36834
1.29661
1.24579
0
0
0
0
0
0
0
0
0.734178
0.721687
0.716882
0.710629
0.702135
0.691668
0.678009
0.662884
0.646991
0.630462
0.613407
0.59593
0.578118
0.560043
0.541755
0.523299
0.504707
0.486007
0.467221
0.448367
0.429457
0.410504
0.391515
0.372498
0.353458
0.334401
0.31533
0.296248
0.277158
0.25806
0.238957
0.21985
0.20074
0.181627
0.162513
0.143397
0.124279
0.105161
0.0860416
0.0669217
0.0478014
0.0286809
0.0095602
1.72765
1.72487
1.71586
1.70235
1.68657
1.66955
1.65171
1.63331
1.61463
1.59587
1.57715
1.55854
1.54002
1.52161
1.50337
1.48517
1.46683
1.44803
1.42814
1.40614
1.37982
1.34324
1.29698
1.24551
1.21359
0
0
0
0
0
0
0.738438
0.753705
0.743092
0.73263
0.721554
0.711034
0.698158
0.682984
0.666938
0.650299
0.63314
0.615571
0.597681
0.579537
0.561193
0.542687
0.524052
0.505315
0.486498
0.467617
0.448685
0.429713
0.410708
0.391677
0.372626
0.353559
0.33448
0.315392
0.296297
0.277195
0.258088
0.238978
0.219866
0.200751
0.181635
0.162518
0.1434
0.124282
0.105162
0.0860422
0.0669219
0.0478014
0.0286809
0.00956022
1.74797
1.74406
1.73211
1.71502
1.69595
1.67628
1.65631
1.63618
1.61607
1.59609
1.57628
1.55663
1.53701
1.51736
1.49764
1.47764
1.45708
1.43559
1.41254
1.38698
1.35734
1.32099
1.27514
1.22361
1.17475
1.10165
1.02978
0.992238
0.920754
0.860248
0.855727
0.803224
0.776816
0.760989
0.74685
0.733397
0.720107
0.704915
0.688456
0.671446
0.65397
0.63612
0.617989
0.599645
0.581134
0.56249
0.54374
0.524904
0.506002
0.487051
0.468063
0.449044
0.43
0.410938
0.391859
0.372769
0.353673
0.33457
0.315463
0.296352
0.277238
0.258121
0.239004
0.219885
0.200766
0.181646
0.162526
0.143406
0.124285
0.105165
0.0860438
0.0669228
0.0478019
0.0286811
0.00956035
1.77549
1.76929
1.75233
1.72989
1.70642
1.68346
1.66102
1.63897
1.61735
1.59617
1.57531
1.55462
1.53398
1.51327
1.49222
1.47064
1.44824
1.42462
1.3992
1.37121
1.33955
1.30276
1.25939
1.21273
1.15903
1.09639
1.03689
0.98549
0.932284
0.884639
0.851705
0.818535
0.794557
0.777091
0.760415
0.745061
0.728957
0.711906
0.694226
0.676171
0.65783
0.639269
0.620554
0.601736
0.582839
0.563879
0.544868
0.525817
0.506735
0.487641
0.468538
0.449426
0.430308
0.411184
0.392058
0.372929
0.353801
0.334672
0.315543
0.296414
0.277286
0.25816
0.239033
0.219908
0.200783
0.181659
0.162535
0.143413
0.12429
0.105168
0.086046
0.0669242
0.0478028
0.0286816
0.00956056
1.81357
1.80265
1.77686
1.74625
1.71715
1.6904
1.66531
1.64127
1.61814
1.5958
1.574
1.55252
1.53111
1.50945
1.4873
1.46445
1.44059
1.41532
1.38818
1.35855
1.32568
1.28876
1.24728
1.2022
1.15282
1.09966
1.04446
0.994076
0.947052
0.904582
0.870427
0.840578
0.815014
0.793502
0.774297
0.755957
0.737503
0.718831
0.699938
0.680884
0.66171
0.642446
0.623148
0.603861
0.58458
0.565302
0.54603
0.526767
0.507517
0.488281
0.469057
0.449844
0.430642
0.411452
0.392272
0.373101
0.353936
0.334779
0.315627
0.29648
0.277337
0.258199
0.239063
0.21993
0.2008
0.181672
0.162545
0.14342
0.124295
0.105172
0.0860485
0.0669259
0.0478039
0.0286823
0.00956085
1.86698
1.84624
1.80525
1.76236
1.72649
1.69588
1.668
1.64239
1.61825
1.59507
1.57253
1.55036
1.52826
1.50582
1.48281
1.45897
1.43405
1.40764
1.37928
1.34853
1.31488
1.27784
1.23719
1.19332
1.14664
1.0979
1.04846
1.00151
0.9581
0.919112
0.885688
0.856259
0.830258
0.807164
0.785891
0.765478
0.745387
0.725395
0.705428
0.685477
0.665555
0.645676
0.625862
0.606118
0.586438
0.566819
0.547262
0.527769
0.508333
0.488941
0.469585
0.450265
0.430976
0.411716
0.39248
0.373263
0.354064
0.334878
0.315705
0.296541
0.277384
0.258235
0.239091
0.219952
0.200817
0.181684
0.162555
0.143427
0.1243
0.105175
0.0860511
0.0669278
0.0478052
0.0286831
0.00956117
1.94579
1.89797
1.83301
1.77631
1.73341
1.69798
1.66774
1.64129
1.61693
1.59362
1.57083
1.54822
1.52557
1.50255
1.47887
1.45428
1.42851
1.4012
1.37196
1.34042
1.30623
1.2691
1.22894
1.18597
1.14077
1.09458
1.04881
1.00487
0.96444
0.928221
0.896205
0.867474
0.841522
0.817721
0.795262
0.773646
0.752446
0.731462
0.71062
0.689898
0.669299
0.648842
0.628518
0.608307
0.58822
0.568259
0.54842
0.528692
0.509062
0.489516
0.47004
0.450625
0.431261
0.411941
0.392656
0.373402
0.354173
0.334964
0.315771
0.296593
0.277425
0.258266
0.239115
0.219971
0.200831
0.181695
0.162563
0.143433
0.124305
0.105179
0.0860536
0.0669297
0.0478066
0.028684
0.00956151
2.12005
1.97059
1.85034
1.77946
1.73195
1.6945
1.66367
1.63757
1.61384
1.59105
1.56857
1.54601
1.52315
1.49976
1.4756
1.45041
1.42393
1.39584
1.36582
1.3336
1.29892
1.26165
1.22181
1.17971
1.13593
1.09169
1.04828
1.00677
0.968403
0.93374
0.902682
0.8748
0.849302
0.825405
0.80256
0.780322
0.758406
0.73669
0.715127
0.693728
0.672514
0.651491
0.630669
0.610046
0.58962
0.569383
0.549317
0.529405
0.509627
0.489962
0.470392
0.450903
0.43148
0.412113
0.392792
0.373508
0.354256
0.335029
0.315822
0.296632
0.277455
0.25829
0.239134
0.219985
0.200842
0.181704
0.162569
0.143438
0.124309
0.105181
0.0860557
0.0669312
0.0478078
0.0286847
0.00956168
2.49197
2.11368
1.86862
1.77775
1.72911
1.69034
1.65982
1.63444
1.61135
1.58905
1.56684
1.54438
1.52145
1.49786
1.47339
1.4478
1.42083
1.39219
1.36161
1.32884
1.29372
1.25621
1.21647
1.17492
1.1322
1.08933
1.04746
1.00755
0.970533
0.93706
0.906833
0.879473
0.854217
0.830347
0.80732
0.784739
0.762374
0.740159
0.718097
0.696222
0.674574
0.653174
0.632032
0.611145
0.590502
0.570087
0.549877
0.529848
0.509976
0.490236
0.470607
0.451072
0.431612
0.412216
0.392873
0.373572
0.354305
0.335067
0.315852
0.296655
0.277474
0.258304
0.239145
0.219994
0.200849
0.181709
0.162573
0.143441
0.124311
0.105183
0.0860571
0.0669323
0.0478084
0.0286848
0.00956156
)
;

boundaryField
{
    ibCylinder
    {
        type            zeroGradientIb;
        patchType       immersedBoundary;
        setDeadValue    true;
        deadValue       0;
        value           nonuniform List<scalar> 0();
    }
    in
    {
        type            zeroGradient;
    }
    out
    {
        type            fixedValue;
        value           uniform 0;
    }
    top
    {
        type            zeroGradient;
    }
    bottom
    {
        type            zeroGradient;
    }
    frontAndBack
    {
        type            empty;
    }
}


// ************************************************************************* //
