/*--------------------------------*- C++ -*----------------------------------*\
| =========                 |                                                 |
| \\      /  F ield         | OpenFOAM: The Open Source CFD Toolbox           |
|  \\    /   O peration     | Version:  2206                                  |
|   \\  /    A nd           | Website:  www.openfoam.com                      |
|    \\/     M anipulation  |                                                 |
\*---------------------------------------------------------------------------*/
FoamFile
{
    version     2.0;
    format      ascii;
    arch        "LSB;label=32;scalar=64";
    class       surfaceScalarField;
    location    "0.1";
    object      phi;
}
// * * * * * * * * * * * * * * * * * * * * * * * * * * * * * * * * * * * * * //

dimensions      [0 3 -1 0 0 0 0];

oriented        oriented;

internalField   nonuniform List<scalar> 
3650
(
0.00276723
0.000432769
0.00234484
0.000422387
0.00202232
0.000322528
0.0018121
0.000210218
0.00169076
0.000121339
0.00162328
6.7487e-05
0.00158533
3.79436e-05
0.0015632
2.21325e-05
0.00154937
1.38279e-05
0.00153977
9.60456e-06
0.0015322
7.56708e-06
0.00152546
6.738e-06
0.00151882
6.64751e-06
0.00151174
7.07258e-06
0.00150379
7.95424e-06
0.00149449
9.30195e-06
0.00148335
1.11431e-05
0.00146984
1.35105e-05
0.00145346
1.63785e-05
0.00143381
1.96538e-05
0.00141062
2.31874e-05
0.00138411
2.65076e-05
0.00135512
2.89909e-05
0.00132529
2.98327e-05
0.00129703
2.82607e-05
0.00127317
2.38587e-05
0.00125684
1.63298e-05
0.00124972
7.12338e-06
0.00125188
-2.16805e-06
0.00126393
-1.20505e-05
0.00128457
-2.06324e-05
0.00131125
-2.66812e-05
0.00134094
-2.96878e-05
0.0013709
-2.99567e-05
0.00139908
-2.81839e-05
0.00142423
-2.51507e-05
0.00144579
-2.1556e-05
0.00146369
-1.79037e-05
0.0014782
-1.45099e-05
0.00148974
-1.15389e-05
0.00149879
-9.04604e-06
0.0015058
-7.01048e-06
0.00151118
-5.3854e-06
0.00151529
-4.10732e-06
0.00151841
-3.11388e-06
0.00152075
-2.34983e-06
0.00152252
-1.7671e-06
0.00152385
-1.32545e-06
0.00152484
-9.92843e-07
0.00152558
-7.43005e-07
0.00152614
-5.55401e-07
0.00152655
-4.14518e-07
0.00152686
-3.08849e-07
0.00152709
-2.2965e-07
0.00152726
-1.7051e-07
0.00152739
-1.26362e-07
0.00152748
-9.3584e-08
0.00152755
-6.91927e-08
0.0015276
-5.12193e-08
0.00152764
-3.78836e-08
0.00152767
-2.81448e-08
0.00152769
-2.0867e-08
0.0015277
-1.56067e-08
0.00152772
-1.16439e-08
0.00152772
-8.90128e-09
0.00152773
-6.84054e-09
0.00152774
-5.35613e-09
0.00152774
-4.10676e-09
0.00152774
-3.29164e-09
0.00152775
-2.54332e-09
0.00152775
-2.23224e-09
0.00152775
-1.87227e-09
0.00152775
-1.81142e-09
0.00152775
-1.67485e-09
-1.60583e-09
0.00335406
0.000278706
0.00335151
0.000424936
0.00327978
0.000394262
0.00319002
0.000299979
0.00310571
0.000205645
0.0030397
0.0001335
0.002992
8.56464e-05
0.0029583
5.58328e-05
0.0029341
3.80293e-05
0.00291583
2.78739e-05
0.00290093
2.24703e-05
0.0028876
2.00629e-05
0.00287461
1.96377e-05
0.00286092
2.0762e-05
0.0028456
2.32763e-05
0.00282773
2.71733e-05
0.00280636
3.25139e-05
0.00278047
3.94049e-05
0.00274903
4.78216e-05
0.00271113
5.75498e-05
0.00266619
6.81286e-05
0.00261436
7.83367e-05
0.00255686
8.64944e-05
0.00249674
8.99484e-05
0.00243851
8.64953e-05
0.0023878
7.45659e-05
0.00235145
5.26756e-05
0.0023333
2.52812e-05
0.00233442
-3.29019e-06
0.00235485
-3.24843e-05
0.00239248
-5.82609e-05
0.00244261
-7.68044e-05
0.00249956
-8.66373e-05
0.00255805
-8.84545e-05
0.00261407
-8.41949e-05
0.0026649
-7.598e-05
0.00270922
-6.58771e-05
0.0027467
-5.53861e-05
0.00277765
-4.54612e-05
0.00280273
-3.66177e-05
0.00282275
-2.90684e-05
0.00283857
-2.28286e-05
0.00285096
-1.77781e-05
0.0028606
-1.37438e-05
0.00286805
-1.05628e-05
0.00287378
-8.08171e-06
0.00287818
-6.16265e-06
0.00288154
-4.68708e-06
0.00288411
-3.55981e-06
0.00288606
-2.70103e-06
0.00288756
-2.04746e-06
0.00288869
-1.55042e-06
0.00288955
-1.17262e-06
0.00289021
-8.85682e-07
0.00289071
-6.68185e-07
0.00289109
-5.03777e-07
0.00289137
-3.79624e-07
0.00289159
-2.85993e-07
0.00289175
-2.15349e-07
0.00289188
-1.62171e-07
0.00289197
-1.22125e-07
0.00289204
-9.20971e-08
0.0028921
-6.95346e-08
0.00289214
-5.26511e-08
0.00289217
-3.99524e-08
0.00289219
-3.04508e-08
0.00289221
-2.32138e-08
0.00289222
-1.78082e-08
0.00289223
-1.37082e-08
0.00289224
-1.06823e-08
0.00289225
-8.4991e-09
0.00289225
-6.83343e-09
0.00289226
-5.68267e-09
0.00289226
-4.65608e-09
-3.7936e-09
0.00331676
0.000161948
0.00341502
0.00032667
0.00346356
0.000345722
0.00346684
0.000296709
0.00344323
0.000229255
0.00341237
0.000164353
0.00338202
0.000115996
0.00335565
8.22025e-05
0.0033338
5.98843e-05
0.00331575
4.59251e-05
0.00330041
3.78076e-05
0.00328651
3.39644e-05
0.00327303
3.31169e-05
0.00325896
3.4833e-05
0.00324329
3.89463e-05
0.003225
4.54638e-05
0.00320303
5.44857e-05
0.00317616
6.62802e-05
0.00314294
8.10455e-05
0.00310188
9.86087e-05
0.00305167
0.000118333
0.00299154
0.000138466
0.00292228
0.000155757
0.00284733
0.000164902
0.00277214
0.000161676
0.00270436
0.000142346
0.0026534
0.000103644
0.00262557
5.3105e-05
0.00262356
-1.27602e-06
0.00264631
-5.52394e-05
0.00269122
-0.000103165
0.00275214
-0.000137724
0.00282145
-0.000155944
0.00289219
-0.000159198
0.00295935
-0.000151358
0.00301988
-0.00013651
0.0030724
-0.000118399
0.00311664
-9.96197e-05
0.00315302
-8.18405e-05
0.00318241
-6.60096e-05
0.00320585
-5.25041e-05
0.00322438
-4.13591e-05
0.00323895
-3.23472e-05
0.00325032
-2.51155e-05
0.00325915
-1.93901e-05
0.00326597
-1.4904e-05
0.00327122
-1.1418e-05
0.00327526
-8.72405e-06
0.00327836
-6.65776e-06
0.00328073
-5.07568e-06
0.00328255
-3.86547e-06
0.00328394
-2.94075e-06
0.003285
-2.23458e-06
0.00328581
-1.69578e-06
0.00328643
-1.28579e-06
0.0032869
-9.74423e-07
0.00328726
-7.38126e-07
0.00328753
-5.58834e-07
0.00328774
-4.22879e-07
0.0032879
-3.19939e-07
0.00328802
-2.421e-07
0.00328811
-1.83296e-07
0.00328818
-1.38911e-07
0.00328823
-1.05388e-07
0.00328827
-8.00275e-08
0.0032883
-6.08227e-08
0.00328832
-4.62836e-08
0.00328834
-3.5321e-08
0.00328835
-2.70913e-08
0.00328836
-2.0953e-08
0.00328837
-1.63714e-08
0.00328838
-1.2852e-08
0.00328838
-1.03032e-08
0.00328839
-8.17235e-09
-6.31156e-09
0.0032596
0.000102344
0.00335053
0.000235741
0.00341913
0.000277127
0.00345416
0.000261678
0.00346344
0.000219974
0.00345666
0.000171137
0.00344371
0.000128942
0.00342913
9.67837e-05
0.00341499
7.40317e-05
0.00340199
5.89235e-05
0.00339013
4.96659e-05
0.00337901
4.50816e-05
0.00336798
4.415e-05
0.00335628
4.65363e-05
0.00334306
5.21675e-05
0.00332738
6.11398e-05
0.00330814
7.37351e-05
0.00328399
9.04338e-05
0.00325327
0.000111761
0.00321388
0.000137995
0.00316334
0.000168881
0.00309928
0.000202522
0.00302136
0.000233674
0.00293433
0.000251936
0.00284518
0.000250822
0.00276374
0.000223787
0.002703
0.000164388
0.00267208
8.40291e-05
0.00267101
-2.15449e-07
0.00269799
-8.22189e-05
0.00275029
-0.000155458
0.00281986
-0.000207294
0.00289753
-0.000233612
0.00297574
-0.000237406
0.00304894
-0.000224558
0.00311375
-0.000201324
0.00316873
-0.000173374
0.00321395
-0.000144843
0.00325037
-0.000118259
0.00327928
-9.4916e-05
0.003302
-7.52241e-05
0.00331974
-5.91037e-05
0.00333354
-4.61502e-05
0.00334424
-3.58096e-05
0.0033525
-2.76486e-05
0.00335886
-2.12646e-05
0.00336375
-1.6307e-05
0.0033675
-1.24767e-05
0.00337038
-9.53934e-06
0.00337259
-7.28791e-06
0.00337429
-5.56111e-06
0.00337559
-4.23847e-06
0.00337658
-3.22652e-06
0.00337734
-2.45312e-06
0.00337791
-1.86453e-06
0.00337836
-1.41677e-06
0.00337869
-1.07593e-06
0.00337895
-8.16452e-07
0.00337915
-6.19139e-07
0.0033793
-4.69539e-07
0.00337941
-3.56129e-07
0.0033795
-2.70224e-07
0.00337956
-2.05123e-07
0.00337961
-1.55822e-07
0.00337965
-1.18351e-07
0.00337968
-8.99569e-08
0.0033797
-6.84057e-08
0.00337972
-5.21914e-08
0.00337973
-3.99567e-08
0.00337974
-3.08215e-08
0.00337975
-2.39018e-08
0.00337976
-1.85893e-08
0.00337976
-1.46989e-08
0.00337976
-1.14754e-08
-8.64021e-09
0.00323306
6.92841e-05
0.00329552
0.000173277
0.0033543
0.00021835
0.00339639
0.000219585
0.00342057
0.000195802
0.00342969
0.000162014
0.00342986
0.000128774
0.00342544
0.000101202
0.00341901
8.04603e-05
0.0034119
6.60367e-05
0.00340456
5.7007e-05
0.0033971
5.25417e-05
0.00338935
5.19034e-05
0.00338091
5.49725e-05
0.00337119
6.1891e-05
0.0033594
7.29321e-05
0.0033445
8.86356e-05
0.00332509
0.000109846
0.00329922
0.000137636
0.0032641
0.000173112
0.00321559
0.000217387
0.00314893
0.000269182
0.00306204
0.000320565
0.00296525
0.000348729
0.00287171
0.000344363
0.0027921
0.000303394
0.00274262
0.000213866
0.00273048
9.61731e-05
0.00273726
-7.0019e-06
0.00276101
-0.000105971
0.00280735
-0.000201791
0.00287129
-0.000271231
0.0029452
-0.000307525
0.00302185
-0.00031406
0.00309482
-0.000297527
0.00315938
-0.000265881
0.00321306
-0.00022705
0.00325594
-0.000187721
0.00328934
-0.000151666
0.00331505
-0.000120625
0.00333473
-9.49019e-05
0.00334973
-7.41016e-05
0.00336113
-5.75504e-05
0.00336982
-4.44982e-05
0.00337645
-3.4283e-05
0.00338152
-2.63361e-05
0.0033854
-2.01845e-05
0.00338837
-1.54455e-05
0.00339064
-1.18137e-05
0.00339238
-9.02756e-06
0.00339371
-6.88943e-06
0.00339472
-5.25195e-06
0.0033955
-3.99966e-06
0.00339609
-3.04278e-06
0.00339654
-2.31595e-06
0.00339689
-1.76304e-06
0.00339715
-1.3408e-06
0.00339735
-1.01876e-06
0.00339751
-7.73413e-07
0.00339762
-5.87329e-07
0.00339771
-4.46095e-07
0.00339778
-3.38911e-07
0.00339783
-2.57495e-07
0.00339787
-1.95731e-07
0.00339791
-1.48755e-07
0.00339793
-1.13082e-07
0.00339795
-8.60407e-08
0.00339796
-6.56655e-08
0.00339797
-5.02877e-08
0.00339798
-3.87066e-08
0.00339798
-2.99378e-08
0.00339799
-2.3161e-08
0.00339799
-1.81796e-08
0.00339799
-1.41156e-08
-1.04905e-08
0.00321982
4.94663e-05
0.00326314
0.000129955
0.00331001
0.000171486
0.00334941
0.000180179
0.00337756
0.000167655
0.00339482
0.00014475
0.00340376
0.000119841
0.00340723
9.77322e-05
0.00340745
8.02404e-05
0.00340587
6.76126e-05
0.00340331
5.95657e-05
0.0034001
5.57571e-05
0.00339622
5.57791e-05
0.00339166
5.95377e-05
0.00338613
6.74244e-05
0.00337911
7.99524e-05
0.0033698
9.79482e-05
0.00335697
0.00012268
0.00333861
0.000155991
0.00331145
0.000200279
0.00326929
0.000259548
0.0032049
0.00033357
0.00311757
0.000407896
0.00303594
0.000430354
0.00298456
0.000395746
0.00298451
0.000303449
0.00303495
0.000163421
0.00308309
4.80384e-05
0.00308712
-1.10334e-05
0.00305789
-7.67481e-05
0.0030385
-0.000182392
0.00303533
-0.000268067
0.00306028
-0.000332476
0.00310725
-0.000361025
0.00316114
-0.000351418
0.00321487
-0.000319613
0.00326101
-0.00027319
0.00329716
-0.000223865
0.00332424
-0.000178751
0.00334421
-0.000140594
0.00335886
-0.000109551
0.00336961
-8.48502e-05
0.00337751
-6.54573e-05
0.00338337
-5.03514e-05
0.00338773
-3.86457e-05
0.003391
-2.96089e-05
0.00339347
-2.26541e-05
0.00339534
-1.73158e-05
0.00339676
-1.3228e-05
0.00339783
-1.00995e-05
0.00339864
-7.70548e-06
0.00339927
-5.87455e-06
0.00339974
-4.47524e-06
0.00340011
-3.40683e-06
0.00340039
-2.59474e-06
0.0034006
-1.97642e-06
0.00340076
-1.50376e-06
0.00340089
-1.14327e-06
0.00340098
-8.68535e-07
0.00340105
-6.59881e-07
0.00340111
-5.01696e-07
0.00340115
-3.81579e-07
0.00340118
-2.90112e-07
0.00340121
-2.20615e-07
0.00340123
-1.67799e-07
0.00340124
-1.27578e-07
0.00340125
-9.71934e-08
0.00340126
-7.42138e-08
0.00340127
-5.68914e-08
0.00340127
-4.37257e-08
0.00340128
-3.37922e-08
0.00340128
-2.61002e-08
0.00340128
-2.03688e-08
0.00340128
-1.58283e-08
-1.16612e-08
0.00321305
3.64184e-05
0.00324474
9.82588e-05
0.00328243
0.000133799
0.00331753
0.000145085
0.00334596
0.000139225
0.00336674
0.000123968
0.00338076
0.000105819
0.00338968
8.88138e-05
0.00339508
7.48398e-05
0.00339818
6.45085e-05
0.00339983
5.79219e-05
0.00340057
5.50158e-05
0.00340074
5.56067e-05
0.00340047
5.98087e-05
0.00339972
6.81832e-05
0.00339832
8.13496e-05
0.00339594
0.000100334
0.00339185
0.000126772
0.00338466
0.000163184
0.00337157
0.000213369
0.00334468
0.000286441
0.00329515
0.000383095
0.00324233
0.000460721
0.00324182
0.000430865
0.00334776
0.000289799
0.00218598
1.50559e-18
0.00131368
1.0196e-18
0.000962246
7.6619e-19
0.00120714
7.12747e-19
0.0020647
7.87986e-19
0.0035925
5.02638e-19
0.00342045
-9.60233e-05
0.00331239
-0.00022441
0.00327699
-0.000325628
0.00327979
-0.000354214
0.00330029
-0.000340119
0.00332692
-0.000299822
0.00334963
-0.000246566
0.00336604
-0.000195165
0.00337735
-0.000151907
0.003385
-0.000117201
0.00339015
-8.99925e-05
0.00339361
-6.8919e-05
0.00339596
-5.27028e-05
0.00339758
-4.02657e-05
0.00339871
-3.07444e-05
0.00339952
-2.34639e-05
0.00340011
-1.7902e-05
0.00340054
-1.36557e-05
0.00340085
-1.04145e-05
0.00340109
-7.94005e-06
0.00340126
-6.05119e-06
0.0034014
-4.60968e-06
0.0034015
-3.51034e-06
0.00340158
-2.67331e-06
0.00340164
-2.03577e-06
0.00340168
-1.54946e-06
0.00340172
-1.17858e-06
0.00340175
-8.96013e-07
0.00340177
-6.81127e-07
0.00340178
-5.18178e-07
0.0034018
-3.94378e-07
0.00340181
-2.99926e-07
0.00340181
-2.28154e-07
0.00340182
-1.73581e-07
0.00340182
-1.32084e-07
0.00340183
-1.00728e-07
0.00340183
-7.70481e-08
0.00340183
-5.90871e-08
0.00340183
-4.54253e-08
0.00340184
-3.50843e-08
0.00340184
-2.71326e-08
0.00340184
-2.11e-08
0.00340184
-1.6486e-08
-1.2108e-08
0.00320949
2.6932e-05
0.00323402
7.37214e-05
0.00326513
0.00010269
0.00329629
0.000113932
0.00332375
0.000111762
0.00334595
0.000101767
0.0033629
8.88677e-05
0.00337545
7.62628e-05
0.00338468
6.5615e-05
0.00339155
5.7636e-05
0.00339688
5.25933e-05
0.00340135
5.05424e-05
0.00340545
5.15109e-05
0.00340942
5.584e-05
0.0034136
6.40132e-05
0.00341826
7.66893e-05
0.00342368
9.49164e-05
0.00343012
0.000120335
0.00343793
0.000155374
0.00344679
0.000204507
0.00344914
0.000284096
0.00344127
0.00039096
0.00344559
0.000456409
0.00280589
0.000267479
4.45355e-18
1.1461e-18
2.44332e-18
1.03873e-19
1.26467e-18
1.22279e-20
1.25766e-18
-1.1291e-21
1.42641e-18
2.08459e-20
1.65233e-18
1.20989e-19
2.84663e-18
2.32282e-19
0.00237017
2.88856e-19
0.00362624
-4.79063e-05
0.00350423
-0.000203616
0.00344607
-0.000296051
0.00342098
-0.000315031
0.00341419
-0.000293034
0.00341447
-0.000246848
0.00341529
-0.000195978
0.00341504
-0.00015166
0.00341389
-0.000116046
0.00341228
-8.83853e-05
0.00341057
-6.72081e-05
0.00340896
-5.10905e-05
0.00340754
-3.88491e-05
0.00340635
-2.9554e-05
0.00340538
-2.24929e-05
0.0034046
-1.71252e-05
0.00340399
-1.30422e-05
0.00340351
-9.93431e-06
0.00340313
-7.56725e-06
0.00340285
-5.76372e-06
0.00340263
-4.38945e-06
0.00340246
-3.34247e-06
0.00340233
-2.54517e-06
0.00340223
-1.93787e-06
0.00340216
-1.47497e-06
0.0034021
-1.12219e-06
0.00340206
-8.5355e-07
0.00340203
-6.49277e-07
0.003402
-4.94029e-07
0.00340198
-3.75969e-07
0.00340197
-2.86008e-07
0.00340196
-2.17649e-07
0.00340195
-1.65667e-07
0.00340194
-1.26244e-07
0.00340194
-9.63754e-08
0.00340194
-7.38302e-08
0.00340193
-5.6665e-08
0.00340193
-4.36371e-08
0.00340193
-3.37078e-08
0.00340193
-2.61606e-08
0.00340193
-2.03492e-08
0.00340193
-1.60351e-08
-1.18303e-08
0.00320748
1.94537e-05
0.00322751
5.36869e-05
0.00325408
7.61189e-05
0.00328216
8.58566e-05
0.0033084
8.55184e-05
0.00333105
7.91171e-05
0.00334967
7.02481e-05
0.00336463
6.13033e-05
0.00337665
5.36002e-05
0.0033865
4.77797e-05
0.00339496
4.41385e-05
0.00340269
4.28144e-05
0.00341022
4.39766e-05
0.0034181
4.79616e-05
0.00342694
5.5178e-05
0.00343744
6.61924e-05
0.00345055
8.18173e-05
0.00346769
0.000103192
0.00349188
0.000131189
0.00352761
0.000168778
0.00356589
0.000245817
0.00359346
0.000363392
0.00363129
0.000418576
4.31326e-18
1.11366e-18
1.92834e-18
9.81891e-20
2.76964e-19
4.09965e-99
2.75202e-19
0
2.78115e-19
0
3.80899e-19
-7.00238e-22
5.95277e-19
-3.8079e-21
1.40549e-18
6.18989e-20
2.90786e-18
2.05819e-19
0.0024359
2.64384e-19
0.00371415
-6.68974e-05
0.00361453
-0.000196433
0.00355253
-0.000253035
0.00351242
-0.000252919
0.00348662
-0.000221056
0.00346859
-0.000177947
0.00345481
-0.000137879
0.00344371
-0.000104944
0.00343472
-7.93909e-05
0.00342749
-5.99847e-05
0.00342175
-4.53515e-05
0.00341724
-3.43326e-05
0.00341371
-2.60275e-05
0.00341097
-1.97559e-05
0.00340886
-1.50108e-05
0.00340723
-1.14139e-05
0.00340598
-8.68362e-06
0.00340502
-6.60854e-06
0.00340429
-5.03038e-06
0.00340373
-3.82947e-06
0.0034033
-2.9155e-06
0.00340297
-2.21962e-06
0.00340273
-1.68971e-06
0.00340254
-1.28597e-06
0.00340239
-9.78537e-07
0.00340228
-7.44508e-07
0.0034022
-5.66561e-07
0.00340214
-4.31162e-07
0.00340209
-3.2812e-07
0.00340205
-2.49679e-07
0.00340203
-1.90075e-07
0.00340201
-1.44833e-07
0.00340199
-1.10528e-07
0.00340198
-8.45288e-08
0.00340197
-6.48063e-08
0.00340196
-4.98596e-08
0.00340196
-3.84745e-08
0.00340195
-2.98067e-08
0.00340195
-2.32597e-08
0.00340195
-1.81662e-08
0.00340195
-1.4435e-08
-1.08098e-08
0.00320628
1.31728e-05
0.00322339
3.6573e-05
0.00324697
5.2546e-05
0.00327288
5.99397e-05
0.00329807
6.0337e-05
0.00332076
5.64282e-05
0.00334032
5.06844e-05
0.00335686
4.47612e-05
0.00337087
3.95952e-05
0.00338297
3.5673e-05
0.00339386
3.32507e-05
0.00340419
3.24906e-05
0.00341459
3.35796e-05
0.00342577
3.67802e-05
0.00343855
4.24029e-05
0.00345389
5.0853e-05
0.00347311
6.26027e-05
0.0034981
7.8203e-05
0.00353217
9.71215e-05
0.00357327
0.000127677
0.003587
0.00023209
0.00361464
0.000335747
4.57404e-18
0.000134445
1.8526e-18
1.74896e-19
2.76682e-19
0
2.76632e-19
0
2.76964e-19
0
2.7551e-19
0
2.82145e-19
0
3.0803e-19
8.61117e-25
7.47025e-19
1.03629e-19
1.37557e-18
9.07172e-20
2.86423e-18
1.5107e-19
0.00383727
-5.39403e-06
0.00374589
-0.000105056
0.00366715
-0.000174292
0.0036047
-0.000190476
0.00355689
-0.000173246
0.00352056
-0.000141614
0.00349292
-0.000110239
0.00347177
-8.37918e-05
0.0034555
-6.3117e-05
0.00344296
-4.74466e-05
0.00343332
-3.57135e-05
0.00342592
-2.69366e-05
0.00342026
-2.03609e-05
0.00341592
-1.54199e-05
0.00341261
-1.16959e-05
0.00341007
-8.88131e-06
0.00340814
-6.74972e-06
0.00340666
-5.13267e-06
0.00340554
-3.90476e-06
0.00340468
-2.97144e-06
0.00340402
-2.26168e-06
0.00340353
-1.72147e-06
0.00340315
-1.31022e-06
0.00340286
-9.97058e-07
0.00340264
-7.58751e-07
0.00340247
-5.77429e-07
0.00340234
-4.39526e-07
0.00340225
-3.34543e-07
0.00340217
-2.5462e-07
0.00340212
-1.93831e-07
0.00340208
-1.47674e-07
0.00340204
-1.12699e-07
0.00340202
-8.61765e-08
0.003402
-6.60723e-08
0.00340199
-5.07915e-08
0.00340198
-3.92319e-08
0.00340197
-3.04147e-08
0.00340196
-2.37198e-08
0.00340196
-1.86918e-08
0.00340195
-1.47651e-08
0.00340195
-1.18662e-08
-9.15899e-09
0.00320554
7.62848e-06
0.00322082
2.12971e-05
0.00324251
3.08537e-05
0.00326702
3.5432e-05
0.00329145
3.59078e-05
0.00331406
3.38166e-05
0.00333415
3.05924e-05
0.00335169
2.72213e-05
0.00336703
2.42601e-05
0.00338069
2.20092e-05
0.00339331
2.06375e-05
0.00340553
2.02672e-05
0.00341807
2.10373e-05
0.00343174
2.31179e-05
0.00344744
2.67105e-05
0.00346619
3.21035e-05
0.00348917
3.96279e-05
0.00351744
4.9937e-05
0.00355041
6.41457e-05
0.00358833
8.97606e-05
0.00367721
0.000143204
0.00376432
0.000248637
3.50847e-18
8.6975e-19
9.07723e-19
4.31732e-20
2.76664e-19
0
2.76664e-19
0
2.76615e-19
0
2.77941e-19
0
2.68244e-19
0
3.22828e-19
0
3.24595e-19
-1.04509e-21
8.22844e-19
-1.36626e-20
2.06734e-18
-8.1413e-21
0.00195027
2.26316e-19
0.00382831
-3.99925e-05
0.00375228
-9.82581e-05
0.00367814
-0.000116338
0.00361453
-0.000109633
0.00356385
-9.09421e-05
0.00352462
-7.10093e-05
0.00349489
-5.40574e-05
0.00347241
-4.064e-05
0.00345542
-3.04565e-05
0.00344256
-2.28542e-05
0.00343282
-1.71915e-05
0.00342543
-1.29674e-05
0.00341981
-9.80464e-06
0.00341554
-7.42726e-06
0.00341229
-5.63433e-06
0.00340982
-4.27855e-06
0.00340794
-3.25153e-06
0.00340651
-2.47248e-06
0.00340542
-1.88094e-06
0.00340459
-1.43125e-06
0.00340395
-1.08914e-06
0.00340347
-8.28723e-07
0.00340311
-6.30601e-07
0.00340283
-4.79882e-07
0.00340262
-3.65327e-07
0.00340245
-2.78133e-07
0.00340233
-2.11782e-07
0.00340224
-1.61245e-07
0.00340217
-1.22879e-07
0.00340211
-9.37811e-08
0.00340207
-7.17928e-08
0.00340204
-5.51297e-08
0.00340202
-4.24929e-08
0.003402
-3.29087e-08
0.00340199
-2.56347e-08
0.00340198
-2.01247e-08
0.00340197
-1.59325e-08
0.00340196
-1.2829e-08
0.00340196
-1.03805e-08
0.00340195
-8.57828e-09
-7.02334e-09
0.0032051
2.52796e-06
0.00321939
7.007e-06
0.00324005
1.01925e-05
0.00326374
1.17406e-05
0.00328773
1.19241e-05
0.00331028
1.12611e-05
0.00333066
1.02202e-05
0.00334875
9.12558e-06
0.00336485
8.16184e-06
0.00337943
7.42991e-06
0.00339308
6.98863e-06
0.00340646
6.88311e-06
0.00342034
7.16277e-06
0.00343557
7.88888e-06
0.00345315
9.13446e-06
0.00347424
1.10156e-05
0.00350017
1.3697e-05
0.00353256
1.75526e-05
0.00357307
2.36386e-05
0.00362836
3.44733e-05
0.00371007
6.14882e-05
5.1298e-18
5.99388e-05
1.67634e-18
8.02583e-20
2.76659e-19
0
2.76663e-19
0
2.76666e-19
0
2.76626e-19
0
2.77053e-19
0
2.74217e-19
0
2.91895e-19
0
2.84232e-19
-3.82431e-23
6.47102e-19
-2.27285e-21
1.71924e-18
9.91056e-20
2.8016e-18
-6.28189e-21
0.00386817
-9.39288e-06
0.00380113
-3.12202e-05
0.00372355
-3.87532e-05
0.00365143
-3.75215e-05
0.00359189
-3.14017e-05
0.00354542
-2.4539e-05
0.00351006
-1.86944e-05
0.00348347
-1.40478e-05
0.00346352
-1.05066e-05
0.00344854
-7.86915e-06
0.00343725
-5.90895e-06
0.00342874
-4.45126e-06
0.00342229
-3.36249e-06
0.00341741
-2.54522e-06
0.00341371
-1.92945e-06
0.00341089
-1.46409e-06
0.00340875
-1.11193e-06
0.00340712
-8.45038e-07
0.00340588
-6.42638e-07
0.00340494
-4.88763e-07
0.00340422
-3.71726e-07
0.00340368
-2.82646e-07
0.00340326
-2.14998e-07
0.00340295
-1.63624e-07
0.00340271
-1.24692e-07
0.00340252
-9.50452e-08
0.00340238
-7.24972e-08
0.00340228
-5.53356e-08
0.0034022
-4.23733e-08
0.00340214
-3.26185e-08
0.00340209
-2.5329e-08
0.00340205
-1.98433e-08
0.00340203
-1.56924e-08
0.00340201
-1.25634e-08
0.00340199
-1.0179e-08
0.00340198
-8.41078e-09
0.00340197
-7.06836e-09
0.00340196
-6.11221e-09
0.00340196
-5.37481e-09
0.00340196
-4.83958e-09
-4.52299e-09
0.00320493
-2.40592e-06
0.00321889
-6.95001e-06
0.00323923
-1.01447e-05
0.00326269
-1.1717e-05
0.00328653
-1.19199e-05
0.00330906
-1.12717e-05
0.00332952
-1.02394e-05
0.0033478
-9.14851e-06
0.00336414
-8.18487e-06
0.00337902
-7.45096e-06
0.00339302
-7.00554e-06
0.0034068
-6.89359e-06
0.00342113
-7.1665e-06
0.0034369
-7.88496e-06
0.00345516
-9.12358e-06
0.00347718
-1.09975e-05
0.00350455
-1.36748e-05
0.00353964
-1.75325e-05
0.00358688
-2.3596e-05
0.00365583
-3.44829e-05
0.00377886
-6.15435e-05
4.95091e-18
-5.99647e-05
1.52641e-18
-8.03458e-20
2.76664e-19
0
2.76663e-19
0
2.76666e-19
0
2.7663e-19
0
2.77005e-19
0
2.74426e-19
0
2.91351e-19
0
2.60828e-19
3.82133e-23
6.98612e-19
2.27796e-21
1.16439e-18
-9.90788e-20
2.68686e-18
6.35389e-21
0.00387991
9.46661e-06
0.0038174
3.12938e-05
0.00373981
3.88343e-05
0.00366464
3.76474e-05
0.00360179
3.1449e-05
0.00355273
2.45154e-05
0.00351539
1.86503e-05
0.00348733
1.40129e-05
0.00346633
1.04892e-05
0.0034506
7.86433e-06
0.00343878
5.91006e-06
0.00342988
4.45434e-06
0.00342315
3.36553e-06
0.00341805
2.54838e-06
0.00341419
1.93305e-06
0.00341126
1.46844e-06
0.00340903
1.11644e-06
0.00340733
8.49369e-07
0.00340604
6.46353e-07
0.00340506
4.92101e-07
0.00340432
3.74807e-07
0.00340375
2.85521e-07
0.00340332
2.17422e-07
0.00340299
1.65401e-07
0.00340274
1.25705e-07
0.00340255
9.54312e-08
0.0034024
7.24189e-08
0.00340229
5.48376e-08
0.00340221
4.13934e-08
0.00340214
3.10126e-08
0.0034021
2.30396e-08
0.00340206
1.688e-08
0.00340203
1.22166e-08
0.00340201
8.62766e-09
0.00340199
5.91696e-09
0.00340198
3.80443e-09
0.00340197
2.17696e-09
0.00340197
9.22307e-10
0.00340196
-1.56028e-10
0.00340196
-9.03976e-10
-1.81411e-09
0.00320513
-7.53164e-06
0.0032194
-2.12221e-05
0.00324006
-3.08035e-05
0.00326375
-3.54066e-05
0.00328773
-3.59036e-05
0.00331029
-3.38271e-05
0.00333066
-3.06113e-05
0.00334875
-2.72436e-05
0.00336485
-2.42827e-05
0.00337943
-2.20295e-05
0.00339308
-2.06536e-05
0.00340646
-2.02781e-05
0.00342034
-2.10411e-05
0.00343557
-2.3115e-05
0.00345315
-2.67009e-05
0.00347424
-3.20884e-05
0.00350018
-3.96085e-05
0.00353257
-4.99199e-05
0.00357308
-6.41142e-05
0.0036284
-8.97979e-05
0.00371011
-0.000143248
5.12962e-18
-0.000248629
1.67656e-18
-8.69994e-19
2.76659e-19
-4.32591e-20
2.76663e-19
0
2.76666e-19
0
2.76626e-19
0
2.77053e-19
0
2.74217e-19
0
2.91898e-19
0
2.84252e-19
1.04577e-21
6.47156e-19
1.36683e-20
1.71948e-18
8.15435e-21
2.80177e-18
-2.26204e-19
0.00386816
4.00797e-05
0.0038011
9.83528e-05
0.00372352
0.000116412
0.00365145
0.000109719
0.00359191
9.09878e-05
0.00354545
7.09722e-05
0.00351008
5.40249e-05
0.00348348
4.06149e-05
0.00346352
3.0445e-05
0.00344853
2.28513e-05
0.00343725
1.71928e-05
0.00342873
1.297e-05
0.00342229
9.80741e-06
0.00341741
7.43024e-06
0.0034137
5.63787e-06
0.00341089
4.28281e-06
0.00340875
3.25605e-06
0.00340712
2.47675e-06
0.00340588
1.88465e-06
0.00340494
1.43455e-06
0.00340422
1.09215e-06
0.00340368
8.31522e-07
0.00340326
6.32962e-07
0.00340295
4.81595e-07
0.00340271
3.66276e-07
0.00340252
2.78468e-07
0.00340238
2.1162e-07
0.00340228
1.60696e-07
0.0034022
1.21841e-07
0.00340214
9.21482e-08
0.00340209
6.94693e-08
0.00340205
5.21728e-08
0.00340203
3.90058e-08
0.00340201
2.90086e-08
0.00340199
2.13809e-08
0.00340198
1.55653e-08
0.00340197
1.10765e-08
0.00340196
7.71706e-09
0.00340196
4.90481e-09
0.00340196
2.94503e-09
8.46839e-10
0.00320557
-1.31018e-05
0.00322083
-3.64793e-05
0.00324252
-5.24962e-05
0.00326703
-5.99144e-05
0.00329146
-6.03332e-05
0.00331407
-5.64384e-05
0.00333416
-5.07021e-05
0.0033517
-4.4782e-05
0.00336703
-3.96161e-05
0.00338069
-3.5692e-05
0.00339331
-3.32658e-05
0.00340553
-3.25009e-05
0.00341807
-3.35839e-05
0.00343174
-3.67786e-05
0.00344743
-4.23958e-05
0.00346619
-5.08414e-05
0.00348917
-6.25874e-05
0.00351744
-7.81868e-05
0.00355043
-9.71101e-05
0.00358832
-0.000127689
0.00367723
-0.000232157
0.00376436
-0.000335758
3.50896e-18
-0.00013441
9.07886e-19
-1.75113e-19
2.76664e-19
0
2.76664e-19
0
2.76615e-19
0
2.77941e-19
0
2.68248e-19
0
3.22861e-19
-9.17884e-25
3.24653e-19
-1.03643e-19
8.22972e-19
-9.07117e-20
2.06746e-18
-1.51039e-19
0.00195027
5.39495e-06
0.00382832
0.000105131
0.00375228
0.000174392
0.00367812
0.000190576
0.00361458
0.000173262
0.00356393
0.000141632
0.00352468
0.000110223
0.00349492
8.37834e-05
0.00347243
6.31119e-05
0.00345543
4.74446e-05
0.00344256
3.57138e-05
0.00343282
2.69388e-05
0.00342542
2.03636e-05
0.00341981
1.54229e-05
0.00341554
1.1699e-05
0.00341229
8.88507e-06
0.00340982
6.75388e-06
0.00340794
5.13718e-06
0.00340651
3.90893e-06
0.00340542
2.97521e-06
0.00340459
2.26492e-06
0.00340395
1.72442e-06
0.00340347
1.31282e-06
0.00340311
9.99261e-07
0.00340283
7.60318e-07
0.00340261
5.78306e-07
0.00340245
4.39762e-07
0.00340233
3.34272e-07
0.00340224
2.53938e-07
0.00340217
1.92666e-07
0.00340211
1.45974e-07
0.00340207
1.10325e-07
0.00340204
8.32514e-08
0.00340202
6.25837e-08
0.003402
4.69668e-08
0.00340199
3.5007e-08
0.00340198
2.59399e-08
0.00340197
1.89404e-08
0.00340196
1.37188e-08
0.00340196
9.44479e-09
0.00340195
6.43787e-09
3.25732e-09
0.00320629
-1.93913e-05
0.00322341
-5.35955e-05
0.00324698
-7.60704e-05
0.0032729
-8.58345e-05
0.00329808
-8.55145e-05
0.00332077
-7.91256e-05
0.00334033
-7.02633e-05
0.00335687
-6.13214e-05
0.00337087
-5.36186e-05
0.00338297
-4.77966e-05
0.00339386
-4.4152e-05
0.00340418
-4.28232e-05
0.00341458
-4.39816e-05
0.00342576
-4.79613e-05
0.00343854
-5.51735e-05
0.00345389
-6.6184e-05
0.00347311
-8.18074e-05
0.0034981
-0.000103181
0.00353217
-0.000131183
0.00357327
-0.000168786
0.00358694
-0.000245835
0.00361457
-0.000363385
4.5748e-18
-0.000418614
1.85318e-18
-1.11385e-18
2.76682e-19
-9.82941e-20
2.76632e-19
0
2.76964e-19
0
2.75509e-19
0
2.82155e-19
7.00564e-22
3.08065e-19
3.81069e-21
7.47185e-19
-6.19152e-20
1.37583e-18
-2.05764e-19
2.8644e-18
-2.64356e-19
0.00383724
6.69215e-05
0.0037459
0.000196478
0.00366716
0.000253131
0.00360473
0.000252999
0.00355695
0.000221045
0.00352065
0.000177928
0.00349298
0.000137894
0.0034718
0.000104964
0.00345551
7.94045e-05
0.00344297
5.99911e-05
0.00343332
4.53552e-05
0.00342593
3.43362e-05
0.00342026
2.60312e-05
0.00341592
1.97599e-05
0.0034126
1.50148e-05
0.00341007
1.14182e-05
0.00340814
8.68791e-06
0.00340666
6.6129e-06
0.00340554
5.03449e-06
0.00340468
3.83329e-06
0.00340402
2.91877e-06
0.00340352
2.22247e-06
0.00340315
1.69206e-06
0.00340286
1.28788e-06
0.00340264
9.7987e-07
0.00340247
7.45295e-07
0.00340234
5.667e-07
0.00340225
4.30784e-07
0.00340217
3.27243e-07
0.00340212
2.48342e-07
0.00340208
1.88223e-07
0.00340204
1.42451e-07
0.00340202
1.0762e-07
0.003402
8.11377e-08
0.00340199
6.10548e-08
0.00340198
4.57472e-08
0.00340197
3.40924e-08
0.00340196
2.51705e-08
0.00340196
1.84543e-08
0.00340195
1.31068e-08
0.00340195
9.30656e-09
5.27668e-09
0.00320748
-2.68757e-05
0.00322753
-7.36386e-05
0.0032541
-0.000102643
0.00328218
-0.000113913
0.00330842
-0.000111758
0.00333107
-0.000101774
0.00334969
-8.88802e-05
0.00336464
-7.62775e-05
0.00337665
-6.56305e-05
0.00338651
-5.76497e-05
0.00339496
-5.26053e-05
0.00340268
-5.05499e-05
0.00341022
-5.15149e-05
0.0034181
-5.58405e-05
0.00342693
-6.40108e-05
0.00343744
-7.66847e-05
0.00345054
-9.49093e-05
0.00346769
-0.000120329
0.00349188
-0.000155376
0.00352761
-0.000204522
0.0035659
-0.000284126
0.00359348
-0.000390967
0.00363129
-0.000456427
4.31383e-18
-0.000267481
1.9289e-18
-1.14611e-18
2.76965e-19
-1.03914e-19
2.752e-19
-1.224e-20
2.78152e-19
1.12725e-21
3.80993e-19
-2.08576e-20
5.95434e-19
-1.20997e-19
1.40572e-18
-2.32245e-19
2.908e-18
-2.88759e-19
0.00243588
4.79318e-05
0.00371417
0.000203591
0.00361451
0.000296136
0.00355252
0.000315117
0.00351249
0.000293031
0.00348672
0.000246811
0.00346866
0.000195994
0.00345484
0.000151708
0.00344373
0.000116081
0.00343473
8.84038e-05
0.0034275
6.72181e-05
0.00342176
5.10969e-05
0.00341724
3.88543e-05
0.00341371
2.95593e-05
0.00341097
2.24982e-05
0.00340886
1.71305e-05
0.00340723
1.30471e-05
0.00340598
9.93881e-06
0.00340502
7.57141e-06
0.00340428
5.76774e-06
0.00340372
4.39326e-06
0.0034033
3.34584e-06
0.00340297
2.54791e-06
0.00340272
1.93994e-06
0.00340254
1.47649e-06
0.00340239
1.12326e-06
0.00340228
8.54181e-07
0.0034022
6.49349e-07
0.00340214
4.93541e-07
0.00340209
3.74879e-07
0.00340205
2.84468e-07
0.00340203
2.15622e-07
0.00340201
1.63288e-07
0.00340199