/*--------------------------------*- C++ -*----------------------------------*\
| =========                 |                                                 |
| \\      /  F ield         | OpenFOAM: The Open Source CFD Toolbox           |
|  \\    /   O peration     | Version:  2206                                  |
|   \\  /    A nd           | Website:  www.openfoam.com                      |
|    \\/     M anipulation  |                                                 |
\*---------------------------------------------------------------------------*/
FoamFile
{
    version     2.0;
    format      ascii;
    arch        "LSB;label=32;scalar=64";
    class       volVectorField;
    location    "0.1";
    object      U;
}
// * * * * * * * * * * * * * * * * * * * * * * * * * * * * * * * * * * * * * //

dimensions      [0 1 -1 0 0 0 0];

internalField   nonuniform List<vector> 
1875
(
(0.79227 0.0170266 0)
(0.769064 0.0681793 0)
(0.691414 0.066242 0)
(0.598231 0.0403281 0)
(0.541992 0.0180068 0)
(0.515148 0.00776947 0)
(0.500149 0.00340944 0)
(0.491331 0.00161737 0)
(0.486007 0.000881739 0)
(0.482512 0.000580994 0)
(0.479928 0.000463891 0)
(0.477752 0.000430319 0)
(0.475702 0.000439394 0)
(0.473593 0.000476512 0)
(0.47128 0.000541128 0)
(0.468618 0.000637076 0)
(0.465459 0.00076721 0)
(0.46164 0.000933848 0)
(0.456998 0.00113384 0)
(0.451381 0.00136152 0)
(0.444675 0.00160837 0)
(0.436857 0.00182993 0)
(0.428078 0.00197767 0)
(0.418726 0.00199379 0)
(0.409446 0.00183382 0)
(0.401077 0.00147558 0)
(0.394618 0.000920139 0)
(0.390945 0.000281012 0)
(0.390231 -0.00038041 0)
(0.392465 -0.0011036 0)
(0.397749 -0.00164175 0)
(0.405348 -0.00196741 0)
(0.41434 -0.00206677 0)
(0.423818 -0.00197965 0)
(0.433003 -0.0017673 0)
(0.441383 -0.00148953 0)
(0.448697 -0.00120038 0)
(0.454851 -0.000933944 0)
(0.459892 -0.000706414 0)
(0.463931 -0.00052281 0)
(0.467116 -0.000379858 0)
(0.469595 -0.000271663 0)
(0.471507 -0.000191735 0)
(0.472968 -0.000133184 0)
(0.474079 -9.0701e-05 0)
(0.474918 -6.04277e-05 0)
(0.475551 -3.91937e-05 0)
(0.476024 -2.46228e-05 0)
(0.47638 -1.48269e-05 0)
(0.476645 -8.38951e-06 0)
(0.476845 -4.17654e-06 0)
(0.476993 -1.51084e-06 0)
(0.477104 1.52122e-07 0)
(0.477186 1.08759e-06 0)
(0.477247 1.57947e-06 0)
(0.477292 1.75894e-06 0)
(0.477326 1.76375e-06 0)
(0.477351 1.64359e-06 0)
(0.477369 1.44606e-06 0)
(0.477383 1.21243e-06 0)
(0.477392 9.77502e-07 0)
(0.4774 7.8008e-07 0)
(0.477405 6.0009e-07 0)
(0.47741 4.62598e-07 0)
(0.477412 3.088e-07 0)
(0.477415 1.89831e-07 0)
(0.477417 1.04118e-07 0)
(0.477418 7.50326e-08 0)
(0.477419 1.27343e-09 0)
(0.47742 6.27698e-09 0)
(0.477421 -7.27215e-08 0)
(0.477422 -7.94617e-08 0)
(0.477422 -1.45631e-07 0)
(0.477422 -1.16567e-07 0)
(0.477423 -1.74992e-07 0)
(1.01135 0.118971 0)
(1.04847 0.153795 0)
(1.04202 0.130542 0)
(1.01371 0.0926912 0)
(0.982861 0.0591787 0)
(0.95879 0.0356847 0)
(0.94146 0.0212279 0)
(0.929037 0.0128591 0)
(0.920203 0.00823663 0)
(0.913753 0.00579409 0)
(0.908724 0.00458355 0)
(0.904408 0.00407857 0)
(0.900384 0.00401702 0)
(0.896288 0.00427819 0)
(0.891824 0.0048189 0)
(0.886708 0.00563757 0)
(0.880651 0.00674629 0)
(0.873342 0.00816297 0)
(0.864457 0.00987161 0)
(0.853672 0.0118093 0)
(0.840737 0.0138749 0)
(0.825563 0.015792 0)
(0.808288 0.0171727 0)
(0.789606 0.0175493 0)
(0.770687 0.0165139 0)
(0.753216 0.0138972 0)
(0.739165 0.00955943 0)
(0.730483 0.00421349 0)
(0.727905 -0.00121539 0)
(0.731342 -0.00693097 0)
(0.740709 -0.0119058 0)
(0.754818 -0.0154177 0)
(0.77196 -0.0172052 0)
(0.79034 -0.0174638 0)
(0.808468 -0.0165615 0)
(0.825294 -0.0149123 0)
(0.840214 -0.0128875 0)
(0.852992 -0.0107848 0)
(0.863643 -0.00880334 0)
(0.872345 -0.00704626 0)
(0.879326 -0.00555715 0)
(0.884866 -0.00433454 0)
(0.889221 -0.00335333 0)
(0.892617 -0.00257641 0)
(0.895248 -0.00196826 0)
(0.897276 -0.00149689 0)
(0.898833 -0.00113452 0)
(0.900025 -0.000857642 0)
(0.900936 -0.00064745 0)
(0.90163 -0.000488253 0)
(0.90216 -0.000367808 0)
(0.902563 -0.000276721 0)
(0.90287 -0.0002079 0)
(0.903103 -0.000155928 0)
(0.90328 -0.00011679 0)
(0.903414 -8.73844e-05 0)
(0.903515 -6.53279e-05 0)
(0.903592 -4.88156e-05 0)
(0.903651 -3.6453e-05 0)
(0.903695 -2.72194e-05 0)
(0.903728 -2.03205e-05 0)
(0.903754 -1.51967e-05 0)
(0.903773 -1.13838e-05 0)
(0.903787 -8.56675e-06 0)
(0.903798 -6.48032e-06 0)
(0.903807 -4.9493e-06 0)
(0.903813 -3.78368e-06 0)
(0.903818 -2.9227e-06 0)
(0.903821 -2.25773e-06 0)
(0.903824 -1.77525e-06 0)
(0.903826 -1.44636e-06 0)
(0.903828 -1.19182e-06 0)
(0.903829 -1.04615e-06 0)
(0.90383 -9.10612e-07 0)
(0.903831 -7.82807e-07 0)
(1.0141 0.0742435 0)
(1.05241 0.122105 0)
(1.07668 0.117975 0)
(1.08695 0.0953626 0)
(1.08104 0.070095 0)
(1.07145 0.0483789 0)
(1.06154 0.0328809 0)
(1.05254 0.0225187 0)
(1.04496 0.0159115 0)
(1.03877 0.0119129 0)
(1.03364 0.0096679 0)
(1.02916 0.00860392 0)
(1.02496 0.00836594 0)
(1.02073 0.00879752 0)
(1.01616 0.0098345 0)
(1.01093 0.0114687 0)
(1.00473 0.0137262 0)
(0.997195 0.0166519 0)
(0.987925 0.0202426 0)
(0.976417 0.0244244 0)
(0.962228 0.0290109 0)
(0.945015 0.0335189 0)
(0.924569 0.0372575 0)
(0.901752 0.0390363 0)
(0.877648 0.0378984 0)
(0.854726 0.0330362 0)
(0.835488 0.0236581 0)
(0.822756 0.0117223 0)
(0.818335 -0.000656281 0)
(0.821651 -0.013126 0)
(0.832575 -0.0243823 0)
(0.849606 -0.0326413 0)
(0.870584 -0.0371349 0)
(0.89292 -0.0380721 0)
(0.914761 -0.0363289 0)
(0.934833 -0.0328432 0)
(0.952546 -0.0285571 0)
(0.967658 -0.024092 0)
(0.9802 -0.0198422 0)
(0.9904 -0.0160393 0)
(0.998574 -0.0127762 0)
(1.00506 -0.010058 0)
(1.01016 -0.00784324 0)
(1.01416 -0.00607223 0)
(1.01727 -0.00467565 0)
(1.01968 -0.00358562 0)
(1.02154 -0.00274107 0)
(1.02297 -0.00209072 0)
(1.02407 -0.00159278 0)
(1.02491 -0.00121227 0)
(1.02555 -0.000921708 0)
(1.02604 -0.000700063 0)
(1.02642 -0.000531118 0)
(1.02671 -0.000402422 0)
(1.02693 -0.000304608 0)
(1.02709 -0.000230419 0)
(1.02722 -0.000174224 0)
(1.02732 -0.000131667 0)
(1.02739 -9.94654e-05 0)
(1.02745 -7.51166e-05 0)
(1.02749 -5.67505e-05 0)
(1.02752 -4.28986e-05 0)
(1.02755 -3.24788e-05 0)
(1.02756 -2.46236e-05 0)
(1.02758 -1.87067e-05 0)
(1.02759 -1.42279e-05 0)
(1.0276 -1.08469e-05 0)
(1.0276 -8.28678e-06 0)
(1.02761 -6.37413e-06 0)
(1.02761 -4.94106e-06 0)
(1.02762 -3.89048e-06 0)
(1.02762 -3.08165e-06 0)
(1.02762 -2.50591e-06 0)
(1.02762 -2.01513e-06 0)
(1.02762 -1.59719e-06 0)
(1.0058 0.040044 0)
(1.03125 0.0847162 0)
(1.05896 0.0959576 0)
(1.07608 0.0882329 0)
(1.08313 0.0719717 0)
(1.08199 0.0538038 0)
(1.07849 0.0393702 0)
(1.07397 0.0287417 0)
(1.06934 0.0214291 0)
(1.0651 0.0167126 0)
(1.0612 0.0138952 0)
(1.05768 0.0125844 0)
(1.05426 0.0123241 0)
(1.05077 0.0129773 0)
(1.04694 0.0145083 0)
(1.04251 0.0169343 0)
(1.03715 0.0202969 0)
(1.03047 0.0247156 0)
(1.02205 0.0303168 0)
(1.01127 0.037086 0)
(0.997393 0.0448305 0)
(0.97961 0.0529462 0)
(0.957287 0.0601325 0)
(0.931042 0.0641227 0)
(0.902761 0.0633985 5.32001e-34)
(0.875204 0.0564568 -5.36588e-34)
(0.851948 0.0418076 0)
(0.837455 0.0221578 0)
(0.832611 0.00047506 0)
(0.83694 -0.0209938 0)
(0.849726 -0.0398948 0)
(0.869391 -0.0532765 0)
(0.893074 -0.060223 0)
(0.917989 -0.0614038 0)
(0.94195 -0.0583121 0)
(0.963657 -0.0525516 0)
(0.9824 -0.0455137 0)
(0.998005 -0.0382375 0)
(1.01067 -0.0313788 0)
(1.02077 -0.0252918 0)
(1.02874 -0.020116 0)
(1.03498 -0.0158721 0)
(1.03984 -0.0124546 0)
(1.04361 -0.00969647 0)
(1.04653 -0.00750157 0)
(1.04878 -0.00577528 0)
(1.0505 -0.00443055 0)
(1.05183 -0.00338707 0)
(1.05285 -0.0025841 0)
(1.05363 -0.00196936 0)
(1.05423 -0.00150001 0)
(1.05469 -0.00114178 0)
(1.05505 -0.000868246 0)
(1.05531 -0.00065951 0)
(1.05552 -0.000500607 0)
(1.05568 -0.00037988 0)
(1.0558 -0.000288174 0)
(1.05589 -0.000218502 0)
(1.05596 -0.000165582 0)
(1.05601 -0.000125449 0)
(1.05605 -9.5064e-05 0)
(1.05608 -7.20746e-05 0)
(1.0561 -5.46934e-05 0)
(1.05612 -4.15273e-05 0)
(1.05614 -3.15484e-05 0)
(1.05615 -2.39742e-05 0)
(1.05615 -1.82382e-05 0)
(1.05616 -1.39108e-05 0)
(1.05616 -1.06612e-05 0)
(1.05617 -8.23236e-06 0)
(1.05617 -6.40233e-06 0)
(1.05617 -4.99915e-06 0)
(1.05617 -3.96557e-06 0)
(1.05618 -3.11729e-06 0)
(1.05618 -2.36433e-06 0)
(1.00306 0.025985 0)
(1.01842 0.062241 0)
(1.03909 0.076279 0)
(1.05594 0.0748782 0)
(1.06664 0.0652579 0)
(1.07134 0.0527686 0)
(1.0723 0.0409447 0)
(1.07137 0.0315356 0)
(1.06955 0.0246781 0)
(1.06738 0.0200043 0)
(1.0651 0.0170847 0)
(1.0628 0.0155754 0)
(1.06044 0.0152701 0)
(1.05794 0.0161031 0)
(1.05516 0.0180733 0)
(1.05188 0.0212302 0)
(1.0478 0.0257002 0)
(1.04257 0.0316764 0)
(1.03567 0.0393767 0)
(1.0264 0.0489852 0)
(1.01367 0.0605611 0)
(0.995961 0.0735732 0)
(0.971792 0.0861324 0)
(0.942248 0.0938911 0)
(0.910959 0.0945771 0)
(0.883279 0.0843956 0)
(0.861237 0.0601632 0)
(0.853385 0.0294511 0)
(0.85295 -0.00108325 0)
(0.857907 -0.0306939 0)
(0.868549 -0.0575582 0)
(0.886139 -0.0760441 0)
(0.90839 -0.0855531 0)
(0.932515 -0.0869192 0)
(0.9563 -0.0819503 0)
(0.978013 -0.0732228 0)
(0.996542 -0.0628234 0)
(1.01156 -0.0522673 0)
(1.02335 -0.0425063 0)
(1.03245 -0.0340052 0)
(1.03943 -0.0268806 0)
(1.04475 -0.021063 0)
(1.04881 -0.0164006 0)
(1.05189 -0.0127059 0)
(1.05424 -0.00980387 0)
(1.05604 -0.00753982 0)
(1.05741 -0.00578363 0)
(1.05846 -0.00443123 0)
(1.05927 -0.00339754 0)
(1.05988 -0.00260313 0)
(1.06035 -0.00199013 0)
(1.06071 -0.00151869 0)
(1.06099 -0.00115716 0)
(1.0612 -0.000880323 0)
(1.06136 -0.000669384 0)
(1.06148 -0.000508712 0)
(1.06157 -0.00038639 0)
(1.06165 -0.000293228 0)
(1.0617 -0.0002224 0)
(1.06174 -0.000168749 0)
(1.06177 -0.000128065 0)
(1.0618 -9.72462e-05 0)
(1.06182 -7.38318e-05 0)
(1.06183 -5.61113e-05 0)
(1.06184 -4.2608e-05 0)
(1.06185 -3.24017e-05 0)
(1.06186 -2.4632e-05 0)
(1.06186 -1.88055e-05 0)
(1.06186 -1.43836e-05 0)
(1.06187 -1.10815e-05 0)
(1.06187 -8.57445e-06 0)
(1.06187 -6.64357e-06 0)
(1.06187 -5.2368e-06 0)
(1.06187 -4.06437e-06 0)
(1.06187 -3.03793e-06 0)
(1.00181 0.0182895 0)
(1.01158 0.0465356 0)
(1.02668 0.0601173 0)
(1.04107 0.0620178 0)
(1.05199 0.0567712 0)
(1.05897 0.0482174 0)
(1.06279 0.0392737 0)
(1.06453 0.0315379 0)
(1.06498 0.0255278 0)
(1.06469 0.0212465 0)
(1.064 0.0185407 0)
(1.06309 0.0172336 0)
(1.062 0.0171191 0)
(1.06068 0.0182059 0)
(1.05914 0.0205596 0)
(1.05724 0.0243005 0)
(1.05477 0.029644 0)
(1.05144 0.0369154 0)
(1.04677 0.0465618 0)
(1.04 0.0591036 0)
(1.02973 0.0752325 0)
(1.01351 0.0947014 0)
(0.988788 0.114265 0)
(0.96069 0.123795 0)
(0.935675 0.118576 0)
(0.927978 0.103992 0)
(0.939131 0.0714021 0)
(0.958369 0.0267179 0)
(0.967328 -0.00693753 0)
(0.96223 -0.0396859 0)
(0.951129 -0.0751871 0)
(0.946793 -0.0966977 0)
(0.950517 -0.10826 0)
(0.96277 -0.110075 0)
(0.97922 -0.1044 0)
(0.996639 -0.0930376 0)
(1.01258 -0.0791157 0)
(1.02544 -0.0650718 0)
(1.0352 -0.0522814 0)
(1.04241 -0.0413763 0)
(1.04769 -0.0324193 0)
(1.05157 -0.0252275 0)
(1.05442 -0.0195368 0)
(1.05652 -0.0150735 0)
(1.05808 -0.0115955 0)
(1.05925 -0.00889863 0)
(1.06013 -0.00681603 0)
(1.06079 -0.00521253 0)
(1.06129 -0.00398191 0)
(1.06168 -0.00303928 0)
(1.06197 -0.0023183 0)
(1.06219 -0.00176715 0)
(1.06235 -0.00134607 0)
(1.06248 -0.0010247 0)
(1.06258 -0.000781359 0)
(1.06266 -0.000596265 0)
(1.06272 -0.000454218 0)
(1.06276 -0.00034563 0)
(1.06279 -0.000262692 0)
(1.06282 -0.0001997 0)
(1.06284 -0.000151759 0)
(1.06285 -0.000115283 0)
(1.06287 -8.76082e-05 0)
(1.06287 -6.65926e-05 0)
(1.06288 -5.06291e-05 0)
(1.06289 -3.84749e-05 0)
(1.06289 -2.92875e-05 0)
(1.06289 -2.23444e-05 0)
(1.0629 -1.71219e-05 0)
(1.0629 -1.31682e-05 0)
(1.0629 -1.01756e-05 0)
(1.0629 -7.86126e-06 0)
(1.0629 -6.14819e-06 0)
(1.0629 -4.76479e-06 0)
(1.0629 -3.524e-06 0)
(1.00118 0.0133157 0)
(1.00791 0.0351472 0)
(1.01937 0.0471374 0)
(1.03144 0.0504448 0)
(1.04172 0.0478325 0)
(1.04943 0.0420862 0)
(1.05473 0.0354938 0)
(1.05819 0.0294401 0)
(1.06033 0.0245371 0)
(1.06159 0.0209411 0)
(1.06228 0.0186404 0)
(1.06262 0.0175997 0)
(1.06274 0.0177392 0)
(1.06274 0.0189988 0)
(1.06259 0.0215844 0)
(1.06228 0.0256766 0)
(1.06175 0.0315687 0)
(1.06084 0.0397239 0)
(1.05924 0.0508419 0)
(1.05649 0.0659048 0)
(1.05098 0.0868129 0)
(1.03935 0.113794 0)
(1.01881 0.139394 0)
(1.0084 0.14071 0)
(1.0185 0.118806 0)
(1.06424 0.0805889 0)
(1.12718 0.0287393 0)
(1.16748 0.00578246 -5.60458e-17)
(1.17837 0.00039848 -4.9689e-17)
(1.16466 -0.00725084 -1.1081e-18)
(1.13825 -0.030563 0)
(1.09338 -0.0627133 0)
(1.04622 -0.098345 0)
(1.02557 -0.115229 0)
(1.02264 -0.115105 0)
(1.02728 -0.106755 0)
(1.03553 -0.0916231 0)
(1.04363 -0.0748645 0)
(1.04976 -0.0594587 0)
(1.05398 -0.0465025 0)
(1.05684 -0.0360552 0)
(1.05876 -0.0278091 0)
(1.06006 -0.021379 0)
(1.06093 -0.0164002 0)
(1.06153 -0.0125611 0)
(1.06195 -0.00960929 0)
(1.06224 -0.00734427 0)
(1.06246 -0.00560955 0)
(1.06261 -0.00428267 0)
(1.06272 -0.00326836 0)
(1.06281 -0.00249295 0)
(1.06287 -0.00190045 0)
(1.06292 -0.00144787 0)
(1.06295 -0.00110242 0)
(1.06298 -0.000839129 0)
(1.063 -0.00063859 0)
(1.06302 -0.000485752 0)
(1.06303 -0.000369282 0)
(1.06304 -0.0002806 0)
(1.06305 -0.000213191 0)
(1.06306 -0.00016229 0)
(1.06306 -0.000123682 0)
(1.06306 -9.415e-05 0)
(1.06307 -7.16614e-05 0)
(1.06307 -5.45671e-05 0)
(1.06307 -4.1512e-05 0)
(1.06307 -3.1661e-05 0)
(1.06307 -2.41826e-05 0)
(1.06307 -1.85451e-05 0)
(1.06307 -1.42369e-05 0)
(1.06307 -1.10007e-05 0)
(1.06307 -8.49063e-06 0)
(1.06307 -6.60985e-06 0)
(1.06307 -5.148e-06 0)
(1.06307 -3.77528e-06 0)
(1.00085 0.00984605 0)
(1.00587 0.0265608 0)
(1.01497 0.0365763 0)
(1.02524 0.0401884 0)
(1.03471 0.0390885 0)
(1.04254 0.0352915 0)
(1.0486 0.0305488 0)
(1.05314 0.0259874 0)
(1.05647 0.0221742 0)
(1.05893 0.0193319 0)
(1.06078 0.0175313 0)
(1.06226 0.0167689 0)
(1.06358 0.0170202 0)
(1.06483 0.0184009 0)
(1.06609 0.0210542 0)
(1.06746 0.0251907 0)
(1.06904 0.0311511 0)
(1.07093 0.0394735 0)
(1.07317 0.0510037 0)
(1.07621 0.0670911 0)
(1.07867 0.0916108 0)
(1.07642 0.124659 0)
(1.07104 0.149486 0)
(1.0761 0.133035 4.08081e-18)
(1.09441 0.0748153 6.30717e-48)
(0 0 0)
(0 0 0)
(0 0 0)
(0 0 0)
(0 0 0)
(0 0 0)
(1.19253 -0.0071954 0)
(1.15716 -0.043057 0)
(1.10767 -0.0876508 0)
(1.08242 -0.106039 0)
(1.07131 -0.105834 0)
(1.06708 -0.0957209 0)
(1.06664 -0.0791889 0)
(1.06719 -0.0625066 0)
(1.06732 -0.0484395 0)
(1.06706 -0.0371945 0)
(1.0666 -0.0284362 0)
(1.06606 -0.0216965 0)
(1.06553 -0.0165408 0)
(1.06506 -0.012607 0)
(1.06465 -0.00960813 0)
(1.06431 -0.00732283 0)
(1.06404 -0.00558135 0)
(1.06383 -0.00425433 0)
(1.06366 -0.00324273 0)
(1.06353 -0.00247136 0)
(1.06343 -0.00188303 0)
(1.06335 -0.00143439 0)
(1.06329 -0.00109239 0)
(1.06324 -0.000831963 0)
(1.06321 -0.000633544 0)
(1.06318 -0.000482256 0)
(1.06316 -0.000366904 0)
(1.06315 -0.000279039 0)
(1.06314 -0.000212216 0)
(1.06313 -0.000161399 0)
(1.06312 -0.000122753 0)
(1.06312 -9.33189e-05 0)
(1.06311 -7.09812e-05 0)
(1.06311 -5.39812e-05 0)
(1.06311 -4.11059e-05 0)
(1.06311 -3.1364e-05 0)
(1.06311 -2.40449e-05 0)
(1.0631 -1.8449e-05 0)
(1.0631 -1.42066e-05 0)
(1.0631 -1.09719e-05 0)
(1.0631 -8.50157e-06 0)
(1.0631 -6.60253e-06 0)
(1.0631 -5.17475e-06 0)
(1.0631 -3.80238e-06 0)
(1.00068 0.00722052 0)
(1.00467 0.0197148 0)
(1.01223 0.027692 0)
(1.02122 0.0310184 0)
(1.02997 0.030719 0)
(1.03769 0.0282541 0)
(1.04413 0.0249335 0)
(1.04934 0.0216237 0)
(1.0535 0.0187936 0)
(1.05686 0.0166623 0)
(1.05967 0.0153235 0)
(1.06215 0.0148136 0)
(1.06451 0.0151776 0)
(1.06688 0.016524 0)
(1.06945 0.0189968 0)
(1.07242 0.0227981 0)
(1.07605 0.0282344 0)
(1.08072 0.0357724 0)
(1.08694 0.0460373 0)
(1.09676 0.0601103 0)
(1.1104 0.0834409 0)
(1.11382 0.113934 0)
(1.09401 0.128364 0)
(1.14045 0.0883473 0)
(0 0 0)
(0 0 0)
(0 0 0)
(0 0 0)
(0 0 0)
(0 0 0)
(0 0 0)
(0 0 0)
(1.21009 -0.00957938 -2.42143e-17)
(1.18071 -0.0415529 -7.2877e-18)
(1.14132 -0.0789389 0)
(1.11773 -0.0910121 0)
(1.10262 -0.0875138 0)
(1.09261 -0.075056 0)
(1.08625 -0.0599453 0)
(1.08154 -0.0463315 0)
(1.07771 -0.03533 0)
(1.0746 -0.0268027 0)
(1.07209 -0.0203078 0)
(1.07008 -0.0153907 0)
(1.0685 -0.0116742 0)
(1.06726 -0.00886398 0)
(1.0663 -0.00673629 0)
(1.06555 -0.0051231 0)
(1.06498 -0.0038984 0)
(1.06454 -0.00296759 0)
(1.0642 -0.00225947 0)
(1.06394 -0.00172045 0)
(1.06374 -0.00131004 0)
(1.06359 -0.000997536 0)
(1.06347 -0.000759572 0)
(1.06338 -0.000578333 0)
(1.06332 -0.000440195 0)
(1.06327 -0.000334968 0)
(1.06323 -0.000254844 0)
(1.0632 -0.00019392 0)
(1.06318 -0.000147576 0)
(1.06316 -0.000112322 0)
(1.06315 -8.54641e-05 0)
(1.06314 -6.50551e-05 0)
(1.06313 -4.95462e-05 0)
(1.06312 -3.77892e-05 0)
(1.06312 -2.88627e-05 0)
(1.06312 -2.21037e-05 0)
(1.06311 -1.69699e-05 0)
(1.06311 -1.30759e-05 0)
(1.06311 -1.01016e-05 0)
(1.06311 -7.85487e-06 0)
(1.06311 -6.11747e-06 0)
(1.06311 -4.84605e-06 0)
(1.06311 -3.58675e-06 0)
(1.00057 0.00508475 0)
(1.00391 0.0139645 0)
(1.01049 0.0199464 0)
(1.01861 0.0226586 0)
(1.02682 0.0227174 0)
(1.03438 0.0211642 0)
(1.041 0.0189355 0)
(1.04662 0.0166563 0)
(1.05135 0.0146774 0)
(1.05539 0.0131785 0)
(1.05893 0.0122504 0)
(1.06219 0.0119464 0)
(1.06539 0.0123285 0)
(1.0687 0.0134934 0)
(1.07238 0.0155596 0)
(1.0767 0.0186844 0)
(1.082 0.0230762 0)
(1.08882 0.0289816 0)
(1.09754 0.0362489 0)
(1.11256 0.0462909 0)
(1.11964 0.0746912 0)
(1.07472 0.114068 0)
(1.07475 0.109498 0)
(0 0 0)
(0 0 0)
(0 0 0)
(0 0 0)
(0 0 0)
(0 0 0)
(0 0 0)
(0 0 0)
(0 0 0)
(0 0 0)
(1.21135 -0.0136794 -1.49862e-18)
(1.18609 -0.0445045 0)
(1.15685 -0.0668964 0)
(1.13485 -0.0704623 0)
(1.1179 -0.063132 0)
(1.10496 -0.0512357 0)
(1.09527 -0.0398236 0)
(1.08779 -0.0302461 0)
(1.08205 -0.0228117 0)
(1.07762 -0.0171803 0)
(1.07422 -0.0129532 0)
(1.0716 -0.00978356 0)
(1.0696 -0.00740356 0)
(1.06806 -0.00561178 0)
(1.06689 -0.00425944 0)
(1.06599 -0.00323618 0)
(1.0653 -0.00246058 0)
(1.06478 -0.00187173 0)
(1.06438 -0.00142434 0)
(1.06408 -0.0010841 0)
(1.06385 -0.000825295 0)
(1.06367 -0.000628263 0)
(1.06353 -0.000478258 0)
(1.06343 -0.000363979 0)
(1.06335 -0.000277002 0)
(1.06329 -0.000210793 0)
(1.06325 -0.000160449 0)
(1.06322 -0.000122126 0)
(1.06319 -9.29487e-05 0)
(1.06317 -7.07497e-05 0)
(1.06315 -5.38774e-05 0)
(1.06314 -4.10894e-05 0)
(1.06313 -3.13809e-05 0)
(1.06313 -2.40342e-05 0)
(1.06312 -1.84377e-05 0)
(1.06312 -1.42177e-05 0)
(1.06312 -1.09831e-05 0)
(1.06311 -8.5353e-06 0)
(1.06311 -6.68394e-06 0)
(1.06311 -5.2389e-06 0)
(1.06311 -4.1766e-06 0)
(1.06311 -3.16672e-06 0)
(1.0005 0.00323185 0)
(1.00344 0.00896256 0)
(1.00942 0.0129445 0)
(1.01696 0.0148289 0)
(1.02483 0.0149923 0)
(1.03225 0.0140891 0)
(1.03895 0.0127216 0)
(1.04482 0.0112981 0)
(1.04992 0.0100507 0)
(1.05441 0.00910399 0)
(1.05847 0.00852705 0)
(1.0623 0.00836827 0)
(1.06611 0.00868236 0)
(1.07014 0.00954028 0)
(1.07465 0.011026 0)
(1.07993 0.0132537 0)
(1.08634 0.0163506 0)
(1.09427 0.020527 0)
(1.10389 0.025815 0)
(1.11556 0.0361384 0)
(1.11882 0.0638631 0)
(1.12254 0.0873781 0)
(1.01071 0.0775533 0)
(0 0 0)
(0 0 0)
(0 0 0)
(0 0 0)
(0 0 0)
(0 0 0)
(0 0 0)
(0 0 0)
(0 0 0)
(0 0 0)
(1.2202 -0.00408282 8.11579e-18)
(1.20867 -0.021142 4.00643e-17)
(1.18551 -0.0422573 0)
(1.16016 -0.0485418 0)
(1.13819 -0.0451334 0)
(1.12064 -0.0372892 0)
(1.10671 -0.029075 0)
(1.09615 -0.0221206 0)
(1.08814 -0.0166339 0)
(1.0821 -0.0124731 0)
(1.07753 -0.00936721 0)
(1.07407 -0.00705166 0)
(1.07144 -0.00532214 0)
(1.06945 -0.00402597 0)
(1.06793 -0.00305093 0)
(1.06678 -0.00231519 0)
(1.0659 -0.00175859 0)
(1.06523 -0.00133678 0)
(1.06473 -0.00101669 0)
(1.06434 -0.000773563 0)
(1.06404 -0.00058871 0)
(1.06382 -0.000448069 0)
(1.06365 -0.000340997 0)
(1.06352 -0.000259504 0)
(1.06342 -0.000197492 0)
(1.06335 -0.000150336 0)
(1.06329 -0.000114449 0)
(1.06324 -8.71339e-05 0)
(1.06321 -6.63322e-05 0)
(1.06319 -5.05177e-05 0)
(1.06317 -3.85191e-05 0)
(1.06315 -2.94321e-05 0)
(1.06314 -2.25464e-05 0)
(1.06313 -1.73176e-05 0)
(1.06313 -1.33541e-05 0)
(1.06312 -1.03418e-05 0)
(1.06312 -8.05767e-06 0)
(1.06312 -6.3153e-06 0)
(1.06311 -5.01941e-06 0)
(1.06311 -3.99852e-06 0)
(1.06311 -3.24266e-06 0)
(1.06311 -2.56262e-06 0)
(1.00046 0.00157011 0)
(1.00318 0.0043958 0)
(1.00882 0.00638087 0)
(1.01604 0.0073365 0)
(1.0237 0.00745013 0)
(1.03106 0.00703664 0)
(1.03778 0.00638705 0)
(1.04379 0.00570337 0)
(1.04911 0.00510157 0)
(1.05386 0.00464507 0)
(1.05822 0.00437061 0)
(1.06239 0.00430624 0)
(1.06659 0.00448332 0)
(1.07106 0.00494019 0)
(1.0761 0.00572276 0)
(1.08201 0.00689987 0)
(1.08926 0.00855931 0)
(1.09811 0.0108772 0)
(1.10972 0.0146676 0)
(1.12056 0.0209075 0)
(1.12879 0.0365592 0)
(1.00046 0.0486552 0)
(0 0 0)
(0 0 0)
(0 0 0)
(0 0 0)
(0 0 0)
(0 0 0)
(0 0 0)
(0 0 0)
(0 0 0)
(0 0 0)
(0 0 0)
(0 0 0)
(1.21656 -0.00799007 -7.09532e-19)
(1.20157 -0.0196461 0)
(1.17563 -0.0242461 0)
(1.15098 -0.0234101 0)
(1.13076 -0.019604 0)
(1.11419 -0.0153294 0)
(1.10166 -0.0116776 0)
(1.09213 -0.00876918 0)
(1.08502 -0.00656242 0)
(1.07967 -0.00491692 0)
(1.07565 -0.00369317 0)
(1.07262 -0.00278253 0)
(1.07033 -0.0021021 0)
(1.0686 -0.00159136 0)
(1.06728 -0.00120659 0)
(1.06628 -0.000915854 0)
(1.06552 -0.000695787 0)
(1.06494 -0.000528941 0)
(1.06451 -0.000402336 0)
(1.06417 -0.0003061 0)
(1.06392 -0.000232908 0)
(1.06372 -0.000177186 0)
(1.06358 -0.000134832 0)
(1.06346 -0.000102609 0)
(1.06338 -7.81514e-05 0)
(1.06331 -5.95165e-05 0)
(1.06326 -4.53486e-05 0)
(1.06323 -3.45455e-05 0)
(1.0632 -2.63667e-05 0)
(1.06318 -2.01637e-05 0)
(1.06316 -1.54985e-05 0)
(1.06315 -1.19606e-05 0)
(1.06314 -9.28322e-06 0)
(1.06313 -7.25141e-06 0)
(1.06312 -5.70846e-06 0)
(1.06312 -4.54569e-06 0)
(1.06312 -3.66034e-06 0)
(1.06311 -3.01306e-06 0)
(1.06311 -2.49922e-06 0)
(1.06311 -2.12606e-06 0)
(1.06311 -1.83055e-06 0)
(1.00044 1.9506e-05 0)
(1.00304 8.03233e-06 0)
(1.0086 7.02569e-06 0)
(1.01575 3.43781e-06 0)
(1.02334 5.4255e-07 0)
(1.03067 -1.76004e-06 0)
(1.03741 -3.06953e-06 0)
(1.04346 -3.66155e-06 0)
(1.04884 -3.64678e-06 0)
(1.05368 -3.38233e-06 0)
(1.05815 -2.68501e-06 0)
(1.06243 -1.73515e-06 0)
(1.06676 -6.14553e-07 0)
(1.07138 5.51523e-07 0)
(1.0766 1.6715e-06 0)
(1.08276 2.79596e-06 0)
(1.09036 3.30547e-06 0)
(1.0997 2.32139e-06 0)
(1.11251 5.71688e-07 0)
(1.12525 -1.85787e-06 0)
(1.14567 -1.15152e-05 0)
(1.06089 1.60973e-06 0)
(0 0 0)
(0 0 0)
(0 0 0)
(0 0 0)
(0 0 0)
(0 0 0)
(0 0 0)
(0 0 0)
(0 0 0)
(0 0 0)
(0 0 0)
(0 0 0)
(1.21869 1.56102e-05 0)
(1.20635 4.82202e-06 0)
(1.1813 1.79407e-05 0)
(1.15556 2.24156e-05 0)
(1.13435 7.46837e-06 0)
(1.1168 -2.76975e-06 0)
(1.10361 -6.83291e-06 0)
(1.09352 -5.42267e-06 0)
(1.08603 -2.87861e-06 0)
(1.08042 -7.72028e-07 0)
(1.0762 2.16217e-07 0)
(1.07303 5.07479e-07 0)
(1.07064 4.90028e-07 0)
(1.06883 4.80427e-07 0)
(1.06745 5.52494e-07 0)
(1.06641 6.57741e-07 0)
(1.06562 6.96537e-07 0)
(1.06502 6.57816e-07 0)
(1.06456 5.70479e-07 0)
(1.06421 5.01868e-07 0)
(1.06395 4.71705e-07 0)
(1.06375 4.31108e-07 0)
(1.06359 3.70717e-07 0)
(1.06348 2.59208e-07 0)
(1.06339 1.47092e-07 0)
(1.06332 4.26795e-08 0)
(1.06327 -2.24005e-08 0)
(1.06323 -9.20313e-08 0)
(1.0632 -1.62053e-07 0)
(1.06318 -2.63652e-07 0)
(1.06316 -3.69075e-07 0)
(1.06315 -4.73981e-07 0)
(1.06314 -5.55071e-07 0)
(1.06313 -6.23427e-07 0)
(1.06313 -6.76142e-07 0)
(1.06312 -7.27099e-07 0)
(1.06312 -7.73145e-07 0)
(1.06312 -8.17808e-07 0)
(1.06311 -8.70793e-07 0)
(1.06311 -9.06294e-07 0)
(1.06311 -9.98808e-07 0)
(1.00046 -0.00153144 0)
(1.00318 -0.00437897 0)
(1.00882 -0.00636611 0)
(1.01604 -0.00732937 0)
(1.0237 -0.00744916 0)
(1.03106 -0.00704018 0)
(1.03778 -0.00639321 0)
(1.04379 -0.0057106 0)
(1.04911 -0.00510889 0)
(1.05386 -0.00465165 0)
(1.05822 -0.00437595 0)
(1.06239 -0.0043097 0)
(1.06659 -0.00448462 0)
(1.07106 -0.00493922 0)
(1.0761 -0.00571962 0)
(1.08201 -0.00689476 0)
(1.08926 -0.00855286 0)
(1.09811 -0.0108714 0)
(1.10971 -0.01464 0)
(1.12056 -0.0209165 0)
(1.12882 -0.0365767 0)
(1.00037 -0.0487294 0)
(0 0 0)
(0 0 0)
(0 0 0)
(0 0 0)
(0 0 0)
(0 0 0)
(0 0 0)
(0 0 0)
(0 0 0)
(0 0 0)
(0 0 0)
(0 0 0)
(1.21656 0.00802301 1.419e-18)
(1.20156 0.0196817 0)
(1.17561 0.0242601 0)
(1.15099 0.0234431 0)
(1.13076 0.0196189 0)
(1.1142 0.0153203 0)
(1.10167 0.0116636 0)
(1.09213 0.00875836 0)
(1.08502 0.00655727 0)
(1.07967 0.00491547 0)
(1.07565 0.00369335 0)
(1.07262 0.00278334 0)
(1.07033 0.00210291 0)
(1.0686 0.00159225 0)
(1.06728 0.00120763 0)
(1.06628 0.000917172 0)
(1.06552 0.00069715 0)
(1.06494 0.000530265 0)
(1.06451 0.000403459 0)
(1.06417 0.000307108 0)
(1.06392 0.000233828 0)
(1.06372 0.000178054 0)
(1.06358 0.000135551 0)
(1.06346 0.00010313 0)
(1.06338 7.84276e-05 0)
(1.06331 5.95994e-05 0)
(1.06326 4.5286e-05 0)
(1.06323 3.436e-05 0)
(1.0632 2.60304e-05 0)
(1.06318 1.96342e-05 0)
(1.06316 1.47581e-05 0)
(1.06315 1.10078e-05 0)
(1.06314 8.17923e-06 0)
(1.06313 6.00243e-06 0)
(1.06312 4.36443e-06 0)
(1.06312 3.09389e-06 0)
(1.06312 2.1239e-06 0)
(1.06311 1.38695e-06 0)
(1.06311 7.663e-07 0)
(1.06311 3.36989e-07 0)
(1.06311 -1.34662e-07 0)
(1.00052 -0.0032108 0)
(1.00344 -0.00893193 0)
(1.00942 -0.012928 0)
(1.01696 -0.0148203 0)
(1.02483 -0.0149909 0)
(1.03225 -0.0140924 0)
(1.03895 -0.0127275 0)
(1.04482 -0.011305 0)
(1.04992 -0.0100577 0)
(1.05441 -0.00911029 0)
(1.05847 -0.00853209 0)
(1.0623 -0.00837168 0)
(1.06611 -0.0086838 0)
(1.07014 -0.00953965 0)
(1.07464 -0.0110235 0)
(1.07993 -0.0132495 0)
(1.08634 -0.016345 0)
(1.09427 -0.0205213 0)
(1.10389 -0.0258094 0)
(1.11557 -0.0361406 0)
(1.11884 -0.063887 0)
(1.12257 -0.0874107 0)
(1.01072 -0.0775724 0)
(0 0 0)
(0 0 0)
(0 0 0)
(0 0 0)
(0 0 0)
(0 0 0)
(0 0 0)
(0 0 0)
(0 0 0)
(0 0 0)
(1.2202 0.00408826 -8.23187e-18)
(1.20867 0.0211752 -4.00602e-17)
(1.18551 0.0422886 0)
(1.16016 0.0485731 0)
(1.13818 0.045152 0)
(1.12067 0.0373018 0)
(1.10673 0.0290617 0)
(1.09617 0.0221133 0)
(1.08814 0.0166285 0)
(1.0821 0.0124706 0)
(1.07753 0.00936646 0)
(1.07407 0.00705195 0)
(1.07144 0.00532276 0)
(1.06945 0.00402671 0)
(1.06793 0.00305177 0)
(1.06678 0.00231624 0)
(1.0659 0.00175986 0)
(1.06523 0.00133815 0)
(1.06473 0.00101798 0)
(1.06434 0.000774689 0)
(1.06404 0.00058971 0)
(1.06382 0.000448964 0)
(1.06365 0.000341827 0)
(1.06352 0.000260192 0)
(1.06342 0.000197987 0)
(1.06335 0.000150584 0)
(1.06329 0.00011452 0)
(1.06324 8.70359e-05 0)
(1.06321 6.61245e-05 0)
(1.06319 5.01524e-05 0)
(1.06317 3.79811e-05 0)
(1.06315 2.86735e-05 0)
(1.06314 2.16073e-05 0)
(1.06313 1.62059e-05 0)
(1.06313 1.21287e-05 0)
(1.06312 9.00012e-06 0)
(1.06312 6.62996e-06 0)
(1.06312 4.79583e-06 0)
(1.06311 3.42961e-06 0)
(1.06311 2.29671e-06 0)
(1.06311 1.5044e-06 0)
(1.06311 6.65301e-07 0)
(1.00058 -0.0050638 0)
(1.00391 -0.0139355 0)
(1.01049 -0.0199314 0)
(1.01862 -0.0226515 0)
(1.02683 -0.0227163 0)
(1.03439 -0.0211673 0)
(1.041 -0.0189409 0)
(1.04662 -0.0166625 0)
(1.05136 -0.0146837 0)
(1.05539 -0.0131843 0)
(1.05893 -0.0122549 0)
(1.06219 -0.0119495 0)
(1.06539 -0.0123301 0)
(1.0687 -0.0134933 0)
(1.07238 -0.0155578 0)
(1.0767 -0.0186814 0)
(1.082 -0.0230722 0)
(1.08882 -0.028977 0)
(1.09754 -0.0362454 0)
(1.11256 -0.0462945 0)
(1.11963 -0.0746901 0)
(1.07469 -0.114081 0)
(1.07475 -0.109506 0)
(0 0 0)
(0 0 0)
(0 0 0)
(0 0 0)
(0 0 0)
(0 0 0)
(0 0 0)
(0 0 0)
(0 0 0)
(0 0 0)
(1.21133 0.0136891 0)
(1.18611 0.0445261 0)
(1.15683 0.0669249 0)
(1.13488 0.0704957 0)
(1.11789 0.0631292 0)
(1.105 0.0512337 0)
(1.0953 0.0398231 0)
(1.08781 0.0302483 0)
(1.08206 0.0228138 0)
(1.07763 0.0171814 0)
(1.07422 0.0129539 0)
(1.0716 0.00978442 0)
(1.0696 0.00740442 0)
(1.06806 0.0056128 0)
(1.06689 0.00426042 0)
(1.06599 0.0032374 0)
(1.0653 0.00246183 0)
(1.06478 0.00187311 0)
(1.06438 0.00142559 0)
(1.06408 0.00108527 0)
(1.06384 0.000826272 0)
(1.06367 0.00062916 0)
(1.06353 0.000479004 0)
(1.06343 0.000364613 0)
(1.06335 0.00027743 0)
(1.06329 0.000211033 0)
(1.06325 0.000160482 0)
(1.06321 0.000122005 0)
(1.06319 9.26886e-05 0)
(1.06317 7.03383e-05 0)
(1.06315 5.33115e-05 0)
(1.06314 4.03184e-05 0)
(1.06313 3.04603e-05 0)
(1.06313 2.29287e-05 0)
(1.06312 1.72467e-05 0)
(1.06312 1.28888e-05 0)
(1.06312 9.5917e-06 0)
(1.06311 7.0448e-06 0)
(1.06311 5.14651e-06 0)
(1.06311 3.60372e-06 0)
(1.06311 2.51437e-06 0)
(1.06311 1.36748e-06 0)
(1.00068 -0.0072019 0)
(1.00467 -0.0196877 0)
(1.01223 -0.0276771 0)
(1.02122 -0.031012 0)
(1.02998 -0.0307179 0)
(1.0377 -0.0282566 0)
(1.04413 -0.0249379 0)
(1.04934 -0.0216289 0)
(1.0535 -0.0187991 0)
(1.05687 -0.0166671 0)
(1.05967 -0.0153276 0)
(1.06215 -0.0148162 0)
(1.0645 -0.0151791 0)
(1.06688 -0.0165241 0)
(1.06944 -0.0189958 0)
(1.07242 -0.0227961 0)
(1.07605 -0.0282318 0)
(1.08072 -0.03577 0)
(1.08694 -0.0460371 0)
(1.09676 -0.0601126 0)
(1.1104 -0.0834513 0)
(1.11383 -0.113934 0)
(1.09402 -0.128354 0)
(1.14045 -0.0883685 0)
(0 0 0)
(0 0 0)
(0 0 0)
(0 0 0)
(0 0 0)
(0 0 0)
(0 0 0)
(0 0 0)
(1.21007 0.00957862 -2.85196e-17)
(1.1807 0.0415718 7.28619e-18)
(1.14134 0.0789388 0)
(1.1177 0.0910509 0)
(1.10264 0.0875237 0)
(1.09265 0.0750445 0)
(1.08628 0.0599366 0)
(1.08155 0.0463439 0)
(1.07771 0.0353405 0)
(1.0746 0.0268085 0)
(1.07209 0.0203106 0)
(1.07009 0.0153924 0)
(1.0685 0.0116756 0)
(1.06726 0.00886538 0)
(1.0663 0.00673769 0)
(1.06555 0.00512454 0)
(1.06498 0.00389978 0)
(1.06454 0.00296896 0)
(1.0642 0.00226077 0)
(1.06394 0.00172171 0)
(1.06374 0.00131121 0)
(1.06359 0.00099856 0)
(1.06347 0.000760429 0)
(1.06338 0.000579007 0)
(1.06332 0.000440718 0)
(1.06327 0.000335323 0)
(1.06323 0.000255059 0)
(1.0632 0.000193931 0)
(1.06318 0.000147429 0)
(1.06316 0.000111993 0)
(1.06315 8.50029e-05 0)
(1.06314 6.44281e-05 0)
(1.06313 4.87964e-05 0)
(1.06312 3.68645e-05 0)
(1.06312 2.78237e-05 0)
(1.06312 2.09286e-05 0)
(1.06311 1.57043e-05 0)
(1.06311 1.17098e-05 0)
(1.06311 8.6744e-06 0)
(1.06311 6.37399e-06 0)
(1.06311 4.57567e-06 0)
(1.06311 3.29309e-06 0)
(1.06311 1.92413e-06 0)
(1.00086 -0.00982939 0)
(1.00587 -0.0265365 0)
(1.01497 -0.0365625 0)
(1.02525 -0.0401828 0)
(1.03472 -0.0390874 0)
(1.04254 -0.0352933 0)
(1.04861 -0.0305523 0)
(1.05314 -0.0259916 0)
(1.05647 -0.0221785 0)
(1.05893 -0.0193359 0)
(1.06078 -0.0175348 0)
(1.06226 -0.016771 0)
(1.06358 -0.0170214 0)
(1.06483 -0.0184011 0)
(1.06608 -0.0210537 0)
(1.06746 -0.0251897 0)
(1.06904 -0.0311497 0)
(1.07093 -0.0394724 0)
(1.07317 -0.0510048 0)
(1.0762 -0.0670982 0)
(1.07867 -0.0916213 0)
(1.07641 -0.12466 0)
(1.07104 -0.149483 0)