/*--------------------------------*- C++ -*----------------------------------*\
| =========                 |                                                 |
| \\      /  F ield         | OpenFOAM: The Open Source CFD Toolbox           |
|  \\    /   O peration     | Version:  2206                                  |
|   \\  /    A nd           | Website:  www.openfoam.com                      |
|    \\/     M anipulation  |                                                 |
\*---------------------------------------------------------------------------*/
FoamFile
{
    version     2.0;
    format      ascii;
    arch        "LSB;label=32;scalar=64";
    class       surfaceVectorField;
    location    "0.1";
    object      Uf;
}
// * * * * * * * * * * * * * * * * * * * * * * * * * * * * * * * * * * * * * //

dimensions      [0 1 -1 0 0 0 0];

internalField   nonuniform List<vector> 
3650
(
(0.86476 0.042603 0)
(0.901811 0.13524 0)
(0.732764 0.0672107 0)
(0.908767 0.131996 0)
(0.631974 0.0532851 0)
(0.866716 0.10079 0)
(0.566281 0.0291674 0)
(0.80597 0.0656932 0)
(0.528363 0.0128881 0)
(0.762427 0.0379183 0)
(0.507274 0.00558945 0)
(0.736969 0.0210897 0)
(0.495416 0.0025134 0)
(0.720805 0.0118574 0)
(0.4885 0.00124955 0)
(0.710184 0.0069164 0)
(0.484179 0.000731367 0)
(0.703105 0.00432123 0)
(0.481178 0.000522443 0)
(0.698133 0.00300143 0)
(0.478813 0.000447105 0)
(0.694326 0.00236471 0)
(0.476708 0.000434857 0)
(0.69108 0.00210563 0)
(0.47463 0.000457953 0)
(0.688043 0.00207735 0)
(0.47242 0.00050882 0)
(0.684941 0.00221018 0)
(0.469935 0.000589102 0)
(0.681552 0.0024857 0)
(0.467028 0.000702143 0)
(0.677663 0.00290686 0)
(0.463547 0.000850529 0)
(0.673055 0.00348221 0)
(0.459325 0.00103385 0)
(0.667491 0.00422205 0)
(0.454207 0.00124768 0)
(0.660728 0.00511827 0)
(0.448065 0.00148494 0)
(0.652526 0.00614181 0)
(0.440819 0.00171915 0)
(0.642706 0.00724605 0)
(0.432535 0.0019038 0)
(0.63121 0.00828364 0)
(0.423476 0.00198573 0)
(0.618183 0.00905965 0)
(0.414153 0.0019138 0)
(0.604166 0.00932273 0)
(0.405321 0.0016547 0)
(0.590067 0.00883147 0)
(0.397866 0.00119786 0)
(0.577147 0.00745586 0)
(0.392762 0.000600576 0)
(0.566891 0.00510306 0)
(0.390536 -4.96989e-05 0)
(0.560714 0.00222606 0)
(0.391214 -0.000742003 0)
(0.559068 -0.000677517 0)
(0.39498 -0.00137267 0)
(0.561903 -0.00376577 0)
(0.401428 -0.00180458 0)
(0.569229 -0.00644761 0)
(0.409766 -0.00201709 0)
(0.580083 -0.00833786 0)
(0.419044 -0.00202321 0)
(0.59315 -0.00927743 0)
(0.428405 -0.00187348 0)
(0.607079 -0.00936147 0)
(0.437213 -0.00162842 0)
(0.620736 -0.00880748 0)
(0.445072 -0.00134496 0)
(0.633339 -0.0078596 0)
(0.451809 -0.00106716 0)
(0.644455 -0.00673623 0)
(0.457404 -0.000820179 0)
(0.653921 -0.00559491 0)
(0.461938 -0.000614612 0)
(0.661767 -0.00453435 0)
(0.465544 -0.000451334 0)
(0.668138 -0.00360589 0)
(0.468371 -0.00032576 0)
(0.673221 -0.00282689 0)
(0.470562 -0.000231699 0)
(0.677231 -0.00219078 0)
(0.472245 -0.00016246 0)
(0.680364 -0.00168294 0)
(0.473529 -0.000111943 0)
(0.682792 -0.00128354 0)
(0.474502 -7.55643e-05 0)
(0.684664 -0.000973087 0)
(0.475236 -4.98107e-05 0)
(0.686097 -0.000734322 0)
(0.475788 -3.19083e-05 0)
(0.687192 -0.000552217 0)
(0.476202 -1.97248e-05 0)
(0.688025 -0.000414204 0)
(0.476513 -1.16082e-05 0)
(0.688658 -0.000310263 0)
(0.476745 -6.28302e-06 0)
(0.689138 -0.000232189 0)
(0.476918 -2.84369e-06 0)
(0.689502 -0.000173563 0)
(0.477048 -6.79361e-07 0)
(0.689778 -0.000129537 0)
(0.477144 6.19855e-07 0)
(0.689987 -9.65153e-05 0)
(0.477216 1.33353e-06 0)
(0.690144 -7.17657e-05 0)
(0.477269 1.66921e-06 0)
(0.690263 -5.32845e-05 0)
(0.477309 1.76135e-06 0)
(0.690353 -3.94881e-05 0)
(0.477338 1.70367e-06 0)
(0.690421 -2.9245e-05 0)
(0.47736 1.54483e-06 0)
(0.690472 -2.16227e-05 0)
(0.477375 1.32925e-06 0)
(0.69051 -1.6006e-05 0)
(0.477387 1.09496e-06 0)
(0.690539 -1.18386e-05 0)
(0.477396 8.78791e-07 0)
(0.69056 -8.79524e-06 0)
(0.477403 6.90085e-07 0)
(0.690577 -6.52093e-06 0)
(0.477407 5.31344e-07 0)
(0.690589 -4.87709e-06 0)
(0.477411 3.85699e-07 0)
(0.690598 -3.63873e-06 0)
(0.477414 2.49316e-07 0)
(0.690605 -2.78165e-06 0)
(0.477416 1.46974e-07 0)
(0.690611 -2.13767e-06 0)
(0.477417 8.95752e-08 0)
(0.690615 -1.67379e-06 0)
(0.477419 3.8153e-08 0)
(0.690618 -1.28336e-06 0)
(0.47742 3.77521e-09 0)
(0.69062 -1.02864e-06 0)
(0.47742 -3.32222e-08 0)
(0.690622 -7.94787e-07 0)
(0.477421 -7.60916e-08 0)
(0.690623 -6.97574e-07 0)
(0.477422 -1.12546e-07 0)
(0.690625 -5.85084e-07 0)
(0.477422 -1.31099e-07 0)
(0.690626 -5.66068e-07 0)
(0.477423 -1.45779e-07 0)
(0.690626 -5.23391e-07 0)
(0.690627 -5.01822e-07 0)
(1.04814 0.136383 0)
(1.01273 0.0870957 0)
(1.04735 0.142169 0)
(1.05044 0.132793 0)
(1.02493 0.111617 0)
(1.05935 0.123207 0)
(0.996881 0.0759349 0)
(1.05033 0.0937433 0)
(0.970536 0.0474317 0)
(1.03195 0.0642642 0)
(0.949907 0.0284563 0)
(1.01512 0.0417186 0)
(0.935 0.0170435 0)
(1.0015 0.0267645 0)
(0.924469 0.0105479 0)
(0.990789 0.0174477 0)
(0.916906 0.00701536 0)
(0.982583 0.0118842 0)
(0.911197 0.00518882 0)
(0.976264 0.0087106 0)
(0.90654 0.00433106 0)
(0.971183 0.00702197 0)
(0.902376 0.0040478 0)
(0.966784 0.00626966 0)
(0.898317 0.00414761 0)
(0.962672 0.00613678 0)
(0.894039 0.00454855 0)
(0.958509 0.00648814 0)
(0.889251 0.00522824 0)
(0.953991 0.00727385 0)
(0.883667 0.00619193 0)
(0.94882 0.00849167 0)
(0.876989 0.00745463 0)
(0.942691 0.0101606 0)
(0.868897 0.00901729 0)
(0.935268 0.012314 0)
(0.859071 0.0108405 0)
(0.926191 0.0149442 0)
(0.847229 0.0128421 0)
(0.915044 0.0179843 0)
(0.833185 0.0148334 0)
(0.901483 0.0212902 0)
(0.816988 0.0164823 0)
(0.885289 0.0244802 0)
(0.799018 0.017361 0)
(0.866428 0.0270295 0)
(0.780232 0.0170316 0)
(0.845679 0.0281089 0)
(0.762034 0.0152056 0)
(0.824168 0.0270298 0)
(0.746187 0.0117283 0)
(0.803971 0.0233019 0)
(0.734829 0.00688646 0)
(0.787327 0.0164611 0)
(0.729155 0.00149905 0)
(0.776619 0.00790038 0)
(0.729505 -0.00407318 0)
(0.77312 -0.00102818 0)
(0.735891 -0.0094184 0)
(0.776496 -0.0101514 0)
(0.747651 -0.0136618 0)
(0.786642 -0.0182065 0)
(0.763314 -0.0163115 0)
(0.802212 -0.0240014 0)
(0.781111 -0.0173345 0)
(0.821272 -0.0270741 0)
(0.799392 -0.0170126 0)
(0.84163 -0.027642 0)
(0.816895 -0.0157369 0)
(0.861615 -0.0263109 0)
(0.83278 -0.0138999 0)
(0.880063 -0.0237437 0)
(0.84663 -0.0118362 0)
(0.89638 -0.0205866 0)
(0.858344 -0.00979409 0)
(0.910325 -0.0173081 0)
(0.868016 -0.0079248 0)
(0.921921 -0.0142066 0)
(0.875853 -0.0063017 0)
(0.931372 -0.011443 0)
(0.88211 -0.00494585 0)
(0.93895 -0.00908387 0)
(0.887054 -0.00384394 0)
(0.944962 -0.00713394 0)
(0.890926 -0.00296487 0)
(0.949693 -0.00555566 0)
(0.893938 -0.00227234 0)
(0.95339 -0.00429495 0)
(0.896265 -0.00173257 0)
(0.956261 -0.00330086 0)
(0.898057 -0.0013157 0)
(0.95848 -0.00252553 0)
(0.89943 -0.000996079 0)
(0.960187 -0.00192583 0)
(0.900481 -0.000752546 0)
(0.961498 -0.00146471 0)
(0.901283 -0.000567852 0)
(0.962501 -0.00111244 0)
(0.901895 -0.000428031 0)
(0.963269 -0.000844072 0)
(0.902361 -0.000322265 0)
(0.963855 -0.000639831 0)
(0.902716 -0.000242311 0)
(0.964303 -0.000484507 0)
(0.902986 -0.000181914 0)
(0.964645 -0.000366445 0)
(0.903191 -0.000136359 0)
(0.964905 -0.000276776 0)
(0.903346 -0.000102087 0)
(0.965103 -0.000208808 0)
(0.903464 -7.63561e-05 0)
(0.965253 -0.00015743 0)
(0.903554 -5.70717e-05 0)
(0.965368 -0.000118633 0)
(0.903621 -4.26343e-05 0)
(0.965455 -8.93728e-05 0)
(0.903673 -3.18362e-05 0)
(0.965521 -6.72966e-05 0)
(0.903711 -2.377e-05 0)
(0.965571 -5.06784e-05 0)
(0.903741 -1.77586e-05 0)
(0.965609 -3.81641e-05 0)
(0.903763 -1.32903e-05 0)
(0.965638 -2.87803e-05 0)
(0.90378 -9.97526e-06 0)
(0.965659 -2.17296e-05 0)
(0.903793 -7.52354e-06 0)
(0.965676 -1.64535e-05 0)
(0.903802 -5.71481e-06 0)
(0.965689 -1.24851e-05 0)
(0.90381 -4.36649e-06 0)
(0.965698 -9.51587e-06 0)
(0.903815 -3.35319e-06 0)
(0.965705 -7.2543e-06 0)
(0.903819 -2.59021e-06 0)
(0.965711 -5.56507e-06 0)
(0.903823 -2.01649e-06 0)
(0.965715 -4.2838e-06 0)
(0.903825 -1.6108e-06 0)
(0.965718 -3.33821e-06 0)
(0.903827 -1.31909e-06 0)
(0.965721 -2.65597e-06 0)
(0.903829 -1.11898e-06 0)
(0.965723 -2.13545e-06 0)
(0.90383 -9.78381e-07 0)
(0.965724 -1.77583e-06 0)
(0.903831 -8.46709e-07 0)
(0.965725 -1.45502e-06 0)
(0.965726 -1.1855e-06 0)
(1.03649 0.0981741 0)
(1.00995 0.0506087 0)
(1.0672 0.12004 0)
(1.04183 0.102085 0)
(1.08236 0.106669 0)
(1.06782 0.108038 0)
(1.08339 0.0827288 0)
(1.08151 0.0927214 0)
(1.07601 0.059237 0)
(1.08208 0.0716423 0)
(1.06637 0.0406299 0)
(1.07672 0.0513604 0)
(1.05688 0.0276998 0)
(1.07002 0.0362486 0)
(1.04864 0.0192151 0)
(1.06325 0.0256883 0)
(1.04181 0.0139122 0)
(1.05715 0.0187139 0)
(1.03617 0.0107904 0)
(1.05194 0.0143516 0)
(1.03138 0.00913591 0)
(1.04742 0.0118149 0)
(1.02703 0.00848493 0)
(1.04342 0.0106139 0)
(1.02282 0.00858173 0)
(1.03961 0.010349 0)
(1.01843 0.00931601 0)
(1.03575 0.0108853 0)
(1.01353 0.0106516 0)
(1.03155 0.0121707 0)
(1.00781 0.0125975 0)
(1.02672 0.0142074 0)
(1.00095 0.0151891 0)
(1.02094 0.0170268 0)
(0.99255 0.0184473 0)
(1.01383 0.0207126 0)
(0.982168 0.0223335 0)
(1.00499 0.0253267 0)
(0.969337 0.0267176 0)
(0.993843 0.0308152 0)
(0.953648 0.0312649 0)
(0.97981 0.0369792 0)
(0.934857 0.0353882 0)
(0.962313 0.0432708 0)
(0.913212 0.0381469 0)
(0.940928 0.0486741 0)
(0.889789 0.0384673 0)
(0.916397 0.051532 0)
(0.866295 0.0354673 0)
(0.890204 0.0505239 2.66e-34)
(0.845114 0.0283472 0)
(0.864965 0.0444831 -2.68294e-34)
(0.829186 0.0176902 0)
(0.843718 0.0323889 0)
(0.820491 0.00553303 0)
(0.830105 0.0165953 0)
(0.819861 -0.00689112 0)
(0.825473 -0.000398755 0)
(0.826973 -0.0187541 0)
(0.829295 -0.0172623 0)
(0.841005 -0.0285118 0)
(0.841151 -0.0322389 0)
(0.860043 -0.0348881 0)
(0.859499 -0.0430388 0)
(0.881702 -0.0376035 0)
(0.881829 -0.0487327 0)
(0.903809 -0.0372005 0)
(0.905454 -0.0497493 0)
(0.924797 -0.034586 0)
(0.928356 -0.0472993 0)
(0.943713 -0.0307001 0)
(0.949245 -0.0426593 0)
(0.960126 -0.0263245 0)
(0.967473 -0.0369998 0)
(0.97395 -0.0219671 0)
(0.982831 -0.0311312 0)
(0.985318 -0.0179408 0)
(0.995435 -0.0255752 0)
(0.994503 -0.0144077 0)
(1.00559 -0.020628 0)
(1.00183 -0.0114171 0)
(1.01366 -0.0164075 0)
(1.00762 -0.00895062 0)
(1.02002 -0.0129247 0)
(1.01217 -0.00695773 0)
(1.025 -0.0101085 0)
(1.01572 -0.00537394 0)
(1.02889 -0.00784859 0)
(1.01848 -0.00413063 0)
(1.0319 -0.00605941 0)
(1.02061 -0.00316334 0)
(1.03423 -0.0046575 0)
(1.02226 -0.00241589 0)
(1.03602 -0.00356812 0)
(1.02352 -0.00184175 0)
(1.0374 -0.00272627 0)
(1.02449 -0.00140253 0)
(1.03846 -0.00208055 0)
(1.02523 -0.00106699 0)
(1.03927 -0.00158615 0)
(1.0258 -0.000810885 0)
(1.03989 -0.00120796 0)
(1.02623 -0.00061559 0)
(1.04037 -0.000918985 0)
(1.02656 -0.00046677 0)
(1.04073 -0.000698305 0)
(1.02682 -0.000353515 0)
(1.04101 -0.000529931 0)
(1.02701 -0.000267513 0)
(1.04122 -0.000401809 0)
(1.02716 -0.000202322 0)
(1.04138 -0.000304507 0)
(1.02727 -0.000152946 0)
(1.04151 -0.000230664 0)
(1.02735 -0.000115566 0)
(1.0416 -0.000174636 0)
(1.02742 -8.7291e-05 0)
(1.04167 -0.00013215 0)
(1.02747 -6.59336e-05 0)
(1.04173 -9.99808e-05 0)
(1.02751 -4.98245e-05 0)
(1.04177 -7.56561e-05 0)
(1.02753 -3.76887e-05 0)
(1.0418 -5.72799e-05 0)
(1.02756 -2.85512e-05 0)
(1.04183 -4.34098e-05 0)
(1.02757 -2.16652e-05 0)
(1.04184 -3.29338e-05 0)
(1.02758 -1.64673e-05 0)
(1.04186 -2.50086e-05 0)
(1.02759 -1.25374e-05 0)
(1.04187 -1.90071e-05 0)
(1.0276 -9.56684e-06 0)
(1.04188 -1.44636e-05 0)
(1.02761 -7.33046e-06 0)
(1.04188 -1.10378e-05 0)
(1.02761 -5.65759e-06 0)
(1.04189 -8.46603e-06 0)
(1.02761 -4.41577e-06 0)
(1.04189 -6.5478e-06 0)
(1.02762 -3.48606e-06 0)
(1.04189 -5.11608e-06 0)
(1.02762 -2.79378e-06 0)
(1.0419 -4.01625e-06 0)
(1.02762 -2.26052e-06 0)
(1.0419 -3.21974e-06 0)
(1.02762 -1.80616e-06 0)
(1.0419 -2.55386e-06 0)
(1.0419 -1.97236e-06 0)
(1.01863 0.0623801 0)
(1.00443 0.0319825 0)
(1.04704 0.0903369 0)
(1.02484 0.0736689 0)
(1.06848 0.0920953 0)
(1.04903 0.0866022 0)
(1.07943 0.0801023 0)
(1.06601 0.0817743 0)
(1.08233 0.0628877 0)
(1.07488 0.0687418 0)
(1.08021 0.046587 0)
(1.07667 0.0534802 0)
(1.07616 0.0340559 0)
(1.0754 0.0402945 0)
(1.0716 0.0250854 0)
(1.07267 0.0302449 0)
(1.06718 0.0190708 0)
(1.06945 0.0231349 0)
(1.06312 0.0153039 0)
(1.06624 0.0184136 0)
(1.05942 0.0132398 0)
(1.06315 0.0155206 0)
(1.05594 0.0124542 0)
(1.06024 0.014088 0)
(1.05249 0.0126507 0)
(1.05735 0.0137969 0)
(1.04884 0.0137428 0)
(1.05435 0.0145426 0)
(1.04471 0.0157213 0)
(1.05105 0.0163023 0)
(1.03981 0.0186156 0)
(1.04719 0.0191062 0)
(1.03379 0.0225062 0)
(1.04248 0.0230422 0)
(1.02625 0.0275162 0)
(1.03652 0.0282605 0)
(1.01665 0.0337014 0)
(1.02886 0.0349253 0)
(1.00434 0.0409582 0)
(1.01883 0.0431234 0)
(0.988543 0.0488883 0)
(1.00553 0.0527753 0)
(0.968525 0.0565394 0)
(0.987785 0.0632882 0)
(0.944176 0.0621276 0)
(0.964539 0.0730232 0)
(0.916978 0.0637606 2.66e-34)
(0.936645 0.0787299 0)
(0.88912 0.0599277 -2.55285e-36)
(0.90686 0.0783818 2.66e-34)
(0.86367 0.0491322 -2.68294e-34)
(0.879242 0.0699333 -2.68294e-34)
(0.844687 0.0319827 0)
(0.856592 0.0513713 0)
(0.835024 0.0113165 0)
(0.84542 0.0262591 0)
(0.834692 -0.0102594 0)
(0.842781 -6.73279e-05 0)
(0.843123 -0.0304443 0)
(0.847424 -0.0256934 0)
(0.859465 -0.0465856 0)
(0.859138 -0.0485806 0)
(0.881206 -0.0567498 0)
(0.877765 -0.0647795 0)
(0.905478 -0.0608134 0)
(0.900732 -0.0730039 0)
(0.929918 -0.059858 0)
(0.925252 -0.0741894 0)
(0.952793 -0.0554318 0)
(0.949125 -0.0701742 0)
(0.973047 -0.0490326 0)
(0.970835 -0.0629138 0)
(0.990227 -0.0418756 0)
(0.989471 -0.0541794 0)
(1.00436 -0.0348082 0)
(1.00478 -0.0452634 0)
(1.01574 -0.0283353 0)
(1.01701 -0.0369559 0)
(1.02477 -0.0227039 0)
(1.02661 -0.0296612 0)
(1.03187 -0.017994 0)
(1.03409 -0.0235075 0)
(1.03742 -0.0141633 0)
(1.03987 -0.0184699 0)
(1.04173 -0.0110755 0)
(1.04432 -0.0144219 0)
(1.04507 -0.00859902 0)
(1.04775 -0.0111905 0)
(1.04766 -0.00663843 0)
(1.05038 -0.00864018 0)
(1.04964 -0.00510292 0)
(1.05241 -0.00664518 0)
(1.05117 -0.00390881 0)
(1.05396 -0.00509593 0)
(1.05234 -0.00298558 0)
(1.05515 -0.00389896 0)
(1.05324 -0.00227673 0)
(1.05606 -0.00298104 0)
(1.05394 -0.00173468 0)
(1.05676 -0.00227747 0)
(1.05447 -0.0013209 0)
(1.05729 -0.00173785 0)
(1.05487 -0.00100501 0)
(1.0577 -0.00132452 0)
(1.05518 -0.000763878 0)
(1.05802 -0.00100829 0)
(1.05542 -0.000580058 0)
(1.05826 -0.000766599 0)
(1.0556 -0.000440243 0)
(1.05844 -0.000582667 0)
(1.05574 -0.000334027 0)
(1.05858 -0.000442742 0)
(1.05584 -0.000253338 0)
(1.05868 -0.000336229 0)
(1.05592 -0.000192042 0)
(1.05877 -0.000255141 0)
(1.05598 -0.000145515 0)
(1.05883 -0.000193481 0)
(1.05603 -0.000110256 0)
(1.05888 -0.000146731 0)
(1.05607 -8.35693e-05 0)
(1.05891 -0.00011129 0)
(1.05609 -6.3384e-05 0)
(1.05894 -8.44449e-05 0)
(1.05611 -4.81103e-05 0)
(1.05896 -6.41009e-05 0)
(1.05613 -3.65378e-05 0)
(1.05898 -4.86944e-05 0)
(1.05614 -2.77613e-05 0)
(1.05899 -3.69848e-05 0)
(1.05615 -2.11062e-05 0)
(1.059 -2.81115e-05 0)
(1.05616 -1.60745e-05 0)
(1.05901 -2.13768e-05 0)
(1.05616 -1.2286e-05 0)
(1.05901 -1.63098e-05 0)
(1.05617 -9.44679e-06 0)
(1.05901 -1.24865e-05 0)
(1.05617 -7.31734e-06 0)
(1.05902 -9.63172e-06 0)
(1.05617 -5.70074e-06 0)
(1.05902 -7.46931e-06 0)
(1.05617 -4.48236e-06 0)
(1.05902 -5.80915e-06 0)
(1.05618 -3.54143e-06 0)
(1.05902 -4.5934e-06 0)
(1.05618 -2.74081e-06 0)
(1.05902 -3.58607e-06 0)
(1.05903 -2.70007e-06 0)
(1.01033 0.044113 0)
(1.00243 0.0216513 0)
(1.02985 0.06926 0)
(1.015 0.0541491 0)
(1.04822 0.0755786 0)
(1.03289 0.0682343 0)
(1.06137 0.070068 0)
(1.0485 0.0686203 0)
(1.06893 0.0590132 0)
(1.05932 0.061188 0)
(1.07178 0.0468566 0)
(1.06515 0.0506294 0)
(1.07183 0.0362402 0)
(1.06755 0.0402418 0)
(1.07045 0.0281069 0)
(1.06795 0.0316258 0)
(1.06844 0.0223412 0)
(1.06727 0.0251438 0)
(1.06622 0.0185445 0)
(1.06603 0.0206365 0)
(1.06392 0.0163301 0)
(1.06455 0.0178147 0)
(1.06159 0.0154227 0)
(1.06295 0.0164193 0)
(1.05917 0.0156866 0)
(1.06122 0.0162198 0)
(1.05653 0.0170882 0)
(1.05931 0.0171789 0)
(1.0535 0.0196518 0)
(1.05715 0.0193409 0)
(1.04981 0.0234652 0)
(1.05456 0.0227913 0)
(1.04516 0.0286883 0)
(1.05129 0.0276986 0)
(1.03909 0.0355266 0)
(1.04701 0.0343269 0)
(1.03101 0.044181 0)
(1.04122 0.0430113 0)
(1.02003 0.0547732 0)
(1.0332 0.0540976 0)
(1.00487 0.0670672 0)
(1.0217 0.0679335 0)
(0.984041 0.0798528 0)
(1.00474 0.0841194 0)
(0.956888 0.0900117 0)
(0.98029 0.100176 0)
(0.92664 0.0942341 0)
(0.951469 0.108978 0)
(0.897408 0.0894863 0)
(0.923317 0.107614 0)
(0.872531 0.0722794 0)
(0.905629 0.0948105 0)
(0.857069 0.0448072 0)
(0.900184 0.0668333 0)
(0.853274 0.0141839 0)
(0.905877 0.0300541 0)
(0.855394 -0.0158886 0)
(0.910139 -0.0021881 0)
(0.862817 -0.0441261 0)
(0.910068 -0.033116 0)
(0.877296 -0.0668012 0)
(0.909839 -0.0630596 0)
(0.897277 -0.0807986 0)
(0.916466 -0.0847596 0)
(0.920375 -0.0862362 0)
(0.929453 -0.0961017 0)
(0.944329 -0.0844348 0)
(0.947642 -0.0981438 0)
(0.967132 -0.0775866 0)
(0.96776 -0.0929773 0)
(0.987306 -0.0680231 0)
(0.987326 -0.0830879 0)
(1.00408 -0.0575453 0)
(1.00456 -0.0709531 0)
(1.01748 -0.0473868 0)
(1.0185 -0.0586628 0)
(1.02792 -0.0382558 0)
(1.02927 -0.0473957 0)
(1.03595 -0.0304429 0)
(1.03743 -0.0376953 0)
(1.0421 -0.0239718 0)
(1.04356 -0.0296569 0)
(1.04679 -0.0187318 0)
(1.04816 -0.0231568 0)
(1.05035 -0.0145532 0)
(1.05161 -0.0179845 0)
(1.05307 -0.0112549 0)
(1.0542 -0.0139057 0)
(1.05514 -0.00867184 0)
(1.05616 -0.0107134 0)
(1.05673 -0.00666172 0)
(1.05764 -0.00823004 0)
(1.05794 -0.00510743 0)
(1.05877 -0.00630766 0)
(1.05887 -0.00391439 0)
(1.05963 -0.00482672 0)
(1.05958 -0.00300034 0)
(1.06028 -0.00369178 0)
(1.06012 -0.00229663 0)
(1.06078 -0.00282111 0)
(1.06053 -0.00175441 0)
(1.06116 -0.00215295 0)
(1.06085 -0.00133793 0)
(1.06145 -0.00164123 0)
(1.06109 -0.00101874 0)
(1.06167 -0.00124989 0)
(1.06128 -0.000774854 0)
(1.06184 -0.000950868 0)
(1.06142 -0.000589048 0)
(1.06197 -0.000723734 0)
(1.06153 -0.000447551 0)
(1.06207 -0.000550949 0)
(1.06161 -0.000339809 0)
(1.06214 -0.000419 0)
(1.06167 -0.000257814 0)
(1.0622 -0.000318362 0)
(1.06172 -0.000195574 0)
(1.06225 -0.000241692 0)
(1.06176 -0.000148407 0)
(1.06228 -0.00018354 0)
(1.06179 -0.000112655 0)
(1.06231 -0.000139405 0)
(1.06181 -8.5539e-05 0)
(1.06233 -0.00010591 0)
(1.06182 -6.49715e-05 0)
(1.06234 -8.04671e-05 0)
(1.06184 -4.93596e-05 0)
(1.06235 -6.1166e-05 0)
(1.06185 -3.75048e-05 0)
(1.06236 -4.6486e-05 0)
(1.06185 -2.85168e-05 0)
(1.06237 -3.5338e-05 0)
(1.06186 -2.17188e-05 0)
(1.06237 -2.68877e-05 0)
(1.06186 -1.65946e-05 0)
(1.06238 -2.05205e-05 0)
(1.06187 -1.27326e-05 0)
(1.06238 -1.57149e-05 0)
(1.06187 -9.828e-06 0)
(1.06238 -1.20958e-05 0)
(1.06187 -7.60901e-06 0)
(1.06238 -9.35555e-06 0)
(1.06187 -5.94018e-06 0)
(1.06239 -7.23781e-06 0)
(1.06187 -4.65058e-06 0)
(1.06239 -5.68114e-06 0)
(1.06187 -3.55115e-06 0)
(1.06239 -4.41113e-06 0)
(1.06239 -3.27828e-06 0)
(1.00619 0.0324126 0)
(1.00149 0.0154582 0)
(1.01973 0.0533264 0)
(1.00975 0.0406108 0)
(1.03438 0.0610675 0)
(1.02302 0.0535892 0)
(1.04669 0.0593945 0)
(1.03625 0.0563059 0)
(1.05549 0.0524943 0)
(1.04686 0.0523921 0)
(1.06088 0.0437456 0)
(1.0542 0.0452343 0)
(1.06367 0.0354058 0)
(1.05876 0.0374504 0)
(1.06476 0.0285329 0)
(1.06136 0.0305413 0)
(1.06483 0.0233872 0)
(1.06265 0.0250751 0)
(1.06433 0.0198936 0)
(1.06314 0.0211289 0)
(1.06354 0.0178872 0)
(1.06314 0.0186143 0)
(1.06253 0.0171763 0)
(1.06286 0.0174241 0)
(1.06132 0.0176625 0)
(1.06237 0.017431 0)
(1.05989 0.0193827 0)
(1.06171 0.0186055 0)
(1.05817 0.02243 0)
(1.06087 0.0210701 0)
(1.05597 0.0269722 0)
(1.05976 0.0249851 0)
(1.05306 0.0332797 0)
(1.05826 0.0306088 0)
(1.04905 0.0417386 0)
(1.05614 0.0383374 0)
(1.04332 0.0528327 0)
(1.05301 0.0487473 0)
(1.03483 0.0671681 0)
(1.04825 0.0625872 0)
(1.02165 0.084967 0)
(1.04036 0.0811086 0)
(1.00153 0.104483 0)
(1.02643 0.104241 0)
(0.97424 0.11903 0)
(1.0038 0.127467 0)
(0.948732 0.121186 0)
(0.984545 0.134486 0)
(0.932675 0.111284 0)
(0.97709 0.123671 0)
(0.932658 0.0876973 0)
(0.996109 0.0948278 0)
(0.948422 0.04906 0)
(1.03316 0.0510692 0)
(0.963464 0.00989016 0)
(1.06292 0.015012 -2.80229e-17)
(0.964724 -0.0233117 0)
(1.07285 -0.00344793 -2.48445e-17)
(0.955592 -0.0574365 0)
(1.06345 -0.0239838 -5.54051e-19)
(0.94953 -0.0859424 0)
(1.04469 -0.0569976 0)
(0.948541 -0.102479 0)
(1.02009 -0.0837709 0)
(0.956338 -0.109167 0)
(0.998368 -0.103899 0)
(0.971015 -0.107237 0)
(0.99417 -0.11282 0)
(0.987856 -0.0987186 0)
(1.00093 -0.109818 0)
(1.00465 -0.0860767 0)
(1.01196 -0.0998791 0)
(1.01907 -0.0720938 0)
(1.02405 -0.085372 0)
(1.03036 -0.0586766 0)
(1.03454 -0.0699578 0)
(1.03883 -0.0468288 0)
(1.04248 -0.0558598 0)
(1.04507 -0.0368978 0)
(1.04819 -0.0439355 0)
(1.04964 -0.0288234 0)
(1.05227 -0.0342347 0)
(1.053 -0.0223821 0)
(1.05517 -0.0265157 0)
(1.05547 -0.0173051 0)
(1.05724 -0.0204554 0)
(1.0573 -0.0133345 0)
(1.05873 -0.0157348 0)
(1.05867 -0.010247 0)
(1.05981 -0.0120768 0)
(1.05969 -0.00785733 0)
(1.0606 -0.00925279 0)
(1.06046 -0.00601428 0)
(1.06118 -0.0070794 0)
(1.06104 -0.00459722 0)
(1.06162 -0.00541118 0)
(1.06149 -0.00351059 0)
(1.06195 -0.00413374 0)
(1.06182 -0.00267879 0)
(1.0622 -0.0031561 0)
(1.06208 -0.00204273 0)
(1.06239 -0.00240796 0)
(1.06227 -0.00155661 0)
(1.06253 -0.0018358 0)
(1.06242 -0.00118539 0)
(1.06264 -0.00139851 0)
(1.06253 -0.00090303 0)
(1.06272 -0.00106463 0)
(1.06262 -0.000688812 0)
(1.06278 -0.000810856 0)
(1.06269 -0.000525242 0)
(1.06283 -0.00061763 0)
(1.06274 -0.000399924 0)
(1.06287 -0.000469925 0)
(1.06278 -0.000304161 0)
(1.0629 -0.000357272 0)
(1.06281 -0.000231196 0)
(1.06292 -0.000271417 0)
(1.06283 -0.000175729 0)
(1.06293 -0.000206213 0)
(1.06285 -0.000133521 0)
(1.06295 -0.00015678 0)
(1.06286 -0.000101446 0)
(1.06296 -0.000119243 0)
(1.06287 -7.71004e-05 0)
(1.06296 -9.06601e-05 0)
(1.06288 -5.86108e-05 0)
(1.06297 -6.89422e-05 0)
(1.06288 -4.4552e-05 0)
(1.06297 -5.24371e-05 0)
(1.06289 -3.38812e-05 0)
(1.06298 -3.98681e-05 0)
(1.06289 -2.5816e-05 0)
(1.06298 -3.03729e-05 0)
(1.06289 -1.97331e-05 0)
(1.06298 -2.31918e-05 0)
(1.0629 -1.5145e-05 0)
(1.06298 -1.77786e-05 0)
(1.0629 -1.16719e-05 0)
(1.06299 -1.36643e-05 0)
(1.0629 -9.0184e-06 0)
(1.06299 -1.05601e-05 0)
(1.0629 -7.00472e-06 0)
(1.06299 -8.15632e-06 0)
(1.0629 -5.45649e-06 0)
(1.06299 -6.36525e-06 0)
(1.0629 -4.1444e-06 0)
(1.06299 -4.94634e-06 0)
(1.06299 -3.64411e-06 0)
(1.00408 0.0242315 0)
(1.00102 0.0113807 0)
(1.01398 0.0411423 0)
(1.00689 0.0307059 0)
(1.02576 0.0487911 0)
(1.01717 0.0418121 0)
(1.03673 0.0491386 0)
(1.02834 0.0453391 0)
(1.04561 0.0449594 0)
(1.03822 0.0435077 0)
(1.05211 0.03879 0)
(1.04598 0.03874 0)
(1.05649 0.032467 0)
(1.05167 0.0330684 0)
(1.05927 0.0269886 0)
(1.05566 0.0277543 0)
(1.06096 0.0227391 0)
(1.0584 0.0233874 0)
(1.06193 0.0197907 0)
(1.06026 0.0201589 0)
(1.06245 0.0181201 0)
(1.06153 0.0181006 0)
(1.06268 0.0176695 0)
(1.06244 0.0171924 0)
(1.06273 0.018369 0)
(1.06316 0.0173771 0)
(1.06265 0.0202916 0)
(1.06379 0.0186902 0)
(1.06241 0.0236305 0)
(1.06434 0.0213072 0)
(1.06198 0.0286227 0)
(1.06487 0.0254218 0)
(1.06123 0.0356463 0)
(1.0654 0.0313545 0)
(1.05995 0.0452829 0)
(1.06589 0.0396164 0)
(1.05771 0.0583733 0)
(1.06621 0.050995 0)
(1.05362 0.0763589 0)
(1.06635 0.0666777 0)
(1.04521 0.100304 0)
(1.06483 0.0895129 0)
(1.02973 0.126594 0)
(1.05788 0.119717 0)
(1.01323 0.140052 0)
(1.04493 0.143975 0)
(1.01307 0.129758 0)
(1.04225 0.134645 2.04041e-18)
(1.04618 0.0996976 0)
(1.05646 0.0905622 3.15358e-48)
(1.09442 0.0546641 0)
(0.53212 0.470498 0)
(1.14503 0.0172609 -2.80229e-17)
(0.56359 0.318626 0)
(1.17431 0.00309047 -5.28674e-17)
(0.58374 0.239434 -2.80229e-17)
(1.17258 -0.00342618 -2.53986e-17)
(0.589187 0.222733 -2.48445e-17)
(1.1494 -0.0189069 -5.54051e-19)
(0.58233 0.246246 -5.54051e-19)
(1.12266 -0.0466382 0)
(0.569127 0.157074 0)
(1.06889 -0.0805292 0)
(1.14296 -0.0300073 0)
(1.03512 -0.106787 0)
(1.10169 -0.070128 0)
(1.02406 -0.115167 0)
(1.06662 -0.101759 0)
(1.02493 -0.11093 0)
(1.05253 -0.110692 0)
(1.03134 -0.0991892 0)
(1.0493 -0.106287 0)
(1.03966 -0.0832438 0)
(1.0513 -0.0936945 0)
(1.04676 -0.0671616 0)
(1.05514 -0.0770519 0)
(1.05189 -0.0529806 0)
(1.05847 -0.060989 0)
(1.05542 -0.0412788 0)
(1.06065 -0.0474709 0)
(1.05781 -0.0319321 0)
(1.06195 -0.0366254 0)
(1.05942 -0.024594 0)
(1.06268 -0.0281226 0)
(1.0605 -0.0188896 0)
(1.06306 -0.0215372 0)
(1.06124 -0.0144807 0)
(1.06323 -0.0164696 0)
(1.06174 -0.0110852 0)
(1.06329 -0.012583 0)
(1.0621 -0.00847678 0)
(1.0633 -0.00960762 0)
(1.06235 -0.00647691 0)
(1.06328 -0.00733247 0)
(1.06253 -0.00494611 0)
(1.06325 -0.00559437 0)
(1.06267 -0.00377552 0)
(1.06322 -0.00426741 0)
(1.06277 -0.00288065 0)
(1.06319 -0.00325452 0)
(1.06284 -0.0021967 0)
(1.06317 -0.00248127 0)
(1.06289 -0.00167416 0)
(1.06315 -0.001891 0)
(1.06294 -0.00127515 0)
(1.06313 -0.00144052 0)
(1.06297 -0.000970773 0)
(1.06312 -0.00109698 0)
(1.06299 -0.000738859 0)
(1.06311 -0.000835411 0)
(1.06301 -0.000562171 0)
(1.06311 -0.00063618 0)
(1.06303 -0.000427517 0)
(1.0631 -0.000484206 0)
(1.06304 -0.000324941 0)
(1.0631 -0.000368307 0)
(1.06305 -0.000246895 0)
(1.0631 -0.000280004 0)
(1.06305 -0.00018774 0)
(1.06309 -0.000212852 0)
(1.06306 -0.000142986 0)
(1.06309 -0.000161931 0)
(1.06306 -0.000108916 0)
(1.06309 -0.000123243 0)
(1.06306 -8.29057e-05 0)
(1.06309 -9.37269e-05 0)
(1.06307 -6.31142e-05 0)
(1.06309 -7.12981e-05 0)
(1.06307 -4.80395e-05 0)
(1.06309 -5.4244e-05 0)
(1.06307 -3.65865e-05 0)
(1.06309 -4.12762e-05 0)
(1.06307 -2.79218e-05 0)
(1.06309 -3.14774e-05 0)
(1.06307 -2.13639e-05 0)
(1.06309 -2.40775e-05 0)
(1.06307 -1.6391e-05 0)
(1.06309 -1.84647e-05 0)
(1.06307 -1.26188e-05 0)
(1.06309 -1.41954e-05 0)
(1.06307 -9.74565e-06 0)
(1.06309 -1.09638e-05 0)
(1.06307 -7.55024e-06 0)
(1.06309 -8.47893e-06 0)
(1.06307 -5.87892e-06 0)
(1.06309 -6.59374e-06 0)
(1.06307 -4.46164e-06 0)
(1.06309 -5.15187e-06 0)
(1.06309 -3.78375e-06 0)
(1.00296 0.0182034 0)
(1.00077 0.00841626 0)
(1.01063 0.0315685 0)
(1.00527 0.0230379 0)
(1.02035 0.0383823 0)
(1.0136 0.0320905 0)
(1.03009 0.0396384 0)
(1.02323 0.0356038 0)
(1.03867 0.03719 0)
(1.03234 0.0349256 0)
(1.04561 0.0329201 0)
(1.04011 0.0318022 0)
(1.05091 0.0282681 0)
(1.04637 0.0277712 0)
(1.05483 0.0240808 0)
(1.05124 0.0238321 0)
(1.05771 0.0207531 0)
(1.05498 0.0205047 0)
(1.05986 0.0184316 0)
(1.05789 0.0180112 0)
(1.06153 0.0171501 0)
(1.06023 0.0164354 0)
(1.06292 0.0168945 0)
(1.06221 0.0157945 0)
(1.0642 0.0177105 0)
(1.06404 0.0160972 0)
(1.06544 0.0197275 0)
(1.06586 0.01745 0)
(1.06675 0.0231225 0)
(1.06777 0.0200041 0)
(1.06821 0.0281709 0)
(1.06994 0.0239654 0)
(1.0699 0.0353123 0)
(1.07255 0.0296614 0)
(1.07191 0.0452386 0)
(1.07583 0.0376046 0)
(1.07435 0.0590474 0)
(1.08005 0.0485543 0)
(1.07712 0.079351 0)
(1.08649 0.0639083 0)
(1.07786 0.108135 0)
(1.09453 0.0887802 0)
(1.0754 0.137073 0)
(1.09512 0.122175 0)
(1.07675 0.141261 2.04041e-18)
(1.08253 0.142628 0)
(1.10431 0.103925 2.04041e-18)
(1.10827 0.109011 2.04041e-18)
(1.39173 0.0374076 -2.54141e-32)
(0.547206 0.358155 3.15358e-48)
(0.763538 0 0)
(0 0.0324603 0)
(0.39521 0 0)
(0 0.00382123 0)
(0.39302 0 0)
(0 -0.000352842 0)
(0.445753 0 0)
(0 0.00651435 0)
(0.516355 0 0)
(0 0.0378091 0)
(0.889571 -0.0035977 0)
(0 0.0725881 0)
(1.17093 -0.0251262 0)
(0.596267 0.0902674 0)
(1.1332 -0.0653539 0)
(1.18362 -0.0257266 -1.21072e-17)
(1.09507 -0.0968451 0)
(1.14419 -0.0636299 -3.64385e-18)
(1.0769 -0.105937 0)
(1.11187 -0.0925159 0)
(1.06906 -0.100777 0)
(1.09452 -0.0984471 0)
(1.06693 -0.0874549 0)
(1.08485 -0.0915732 0)
(1.06702 -0.0708477 0)
(1.07963 -0.07714 0)
(1.06728 -0.0554731 0)
(1.07672 -0.0612432 0)
(1.0672 -0.042817 0)
(1.07443 -0.0473938 0)
(1.06684 -0.0328154 0)
(1.07238 -0.0362643 0)
(1.06634 -0.0250664 0)
(1.0706 -0.0276204 0)
(1.0658 -0.0191187 0)
(1.06907 -0.0210025 0)
(1.0653 -0.0145739 0)
(1.06781 -0.0159658 0)
(1.06486 -0.0111076 0)
(1.06678 -0.0121403 0)
(1.06448 -0.00846548 0)
(1.06596 -0.00923563 0)
(1.06418 -0.00645209 0)
(1.06531 -0.00702902 0)
(1.06394 -0.00491784 0)
(1.0648 -0.00535162 0)
(1.06375 -0.00374853 0)
(1.0644 -0.00407568 0)
(1.0636 -0.00285705 0)
(1.0641 -0.00310447 0)
(1.06348 -0.0021772 0)
(1.06386 -0.00236477 0)
(1.06339 -0.00165871 0)
(1.06368 -0.00180116 0)
(1.06332 -0.00126339 0)
(1.06354 -0.0013717 0)
(1.06327 -0.000962179 0)
(1.06344 -0.00104452 0)
(1.06323 -0.000732754 0)
(1.06336 -0.000795366 0)
(1.0632 -0.0005579 0)
(1.0633 -0.000605584 0)
(1.06317 -0.00042458 0)
(1.06325 -0.000460928 0)
(1.06316 -0.000322972 0)
(1.06322 -0.000350685 0)
(1.06314 -0.000245627 0)
(1.06319 -0.000266734 0)
(1.06313 -0.000186807 0)
(1.06317 -0.000202899 0)
(1.06313 -0.000142076 0)
(1.06315 -0.000154384 0)
(1.06312 -0.000108036 0)
(1.06314 -0.00011749 0)
(1.06312 -8.21501e-05 0)
(1.06313 -8.93775e-05 0)
(1.06311 -6.24812e-05 0)
(1.06313 -6.80152e-05 0)
(1.06311 -4.75436e-05 0)
(1.06312 -5.17709e-05 0)
(1.06311 -3.6235e-05 0)
(1.06312 -3.94511e-05 0)
(1.06311 -2.77044e-05 0)
(1.06311 -3.01173e-05 0)
(1.06311 -2.12469e-05 0)
(1.06311 -2.30719e-05 0)
(1.0631 -1.63278e-05 0)
(1.06311 -1.77078e-05 0)
(1.0631 -1.25893e-05 0)
(1.06311 -1.36366e-05 0)
(1.0631 -9.73674e-06 0)
(1.06311 -1.05337e-05 0)
(1.0631 -7.55205e-06 0)
(1.06311 -8.17518e-06 0)
(1.0631 -5.88864e-06 0)
(1.06311 -6.35914e-06 0)
(1.0631 -4.48857e-06 0)
(1.06311 -5.01096e-06 0)
(1.06311 -3.69697e-06 0)
(1.00234 0.0134677 0)
(1.00063 0.00607929 0)
(1.0086 0.0237034 0)
(1.00429 0.0167771 0)
(1.0169 0.0293552 0)
(1.01136 0.0237872 0)
(1.02567 0.0308687 0)
(1.01991 0.0268302 0)
(1.03388 0.0294865 0)
(1.0284 0.0267245 0)
(1.04095 0.0265938 0)
(1.03604 0.0247241 0)
(1.04677 0.0232786 0)
(1.04256 0.0219525 0)
(1.05145 0.0202086 0)
(1.04798 0.0191573 0)
(1.0552 0.0177279 0)
(1.05243 0.0167501 0)
(1.05828 0.0159929 0)
(1.05613 0.0149312 0)
(1.06093 0.0150685 0)
(1.0593 0.0137933 0)
(1.06334 0.0149956 0)
(1.06217 0.0133795 0)
(1.0657 0.0158508 0)
(1.06495 0.0137427 0)
(1.06816 0.0177604 0)
(1.06779 0.014988 0)
(1.07092 0.0208975 0)
(1.07092 0.0172431 0)
(1.0742 0.0255163 0)
(1.07456 0.0206851 0)
(1.0783 0.0320034 0)
(1.07903 0.0255679 0)
(1.08365 0.0409048 0)
(1.08477 0.0322475 0)
(1.09121 0.0530738 0)
(1.09224 0.0409965 0)