# vtk DataFile Version 2.0
sampleSurface
ASCII
DATASET POLYDATA
POINTS 1086 double
-0.00076 0 0.001
-0.00076 0 -0.001
0 -0.001 0.001
0 -0.001 -0.001
-0.001976 0 -0.001
-0.001976 0 0.001
0 -0.002 0.001
0 -0.002 -0.001
0 -0.003 0.001
0 -0.003 -0.001
-0.003192 0 -0.001
-0.003192 0 0.001
0 -0.004 0.001
0 -0.004 -0.001
-0.004408 0 -0.001
-0.004408 0 0.001
0 -0.005 0.001
0 -0.005 -0.001
-0.005624 0 -0.001
-0.005624 0 0.001
0 -0.006 0.001
0 -0.006 -0.001
-0.00684 0 -0.001
-0.00684 0 0.001
0 -0.007 0.001
0 -0.007 -0.001
0 -0.008 0.001
0 -0.008 -0.001
-0.008056 0 -0.001
-0.008056 0 0.001
0 -0.009 0.001
0 -0.009 -0.001
-0.009272 0 -0.001
-0.009272 0 0.001
0 -0.01 0.001
0 -0.01 -0.001
-0.010488 0 -0.001
-0.010488 0 0.001
0 -0.011 0.001
0 -0.011 -0.001
-0.011704 0 -0.001
-0.011704 0 0.001
0 -0.012 0.001
0 -0.012 -0.001
-0.01292 0 -0.001
-0.01292 0 0.001
0 -0.013 0.001
0 -0.013 -0.001
0 -0.014 0.001
0 -0.014 -0.001
-0.014136 0 -0.001
-0.014136 0 0.001
0 -0.015 0.001
0 -0.015 -0.001
-0.015352 0 -0.001
-0.015352 0 0.001
0 -0.016 0.001
0 -0.016 -0.001
-0.016568 0 -0.001
-0.016568 0 0.001
0 -0.017 0.001
0 -0.017 -0.001
-0.017784 0 -0.001
-0.017784 0 0.001
0 -0.018 0.001
0 -0.018 -0.001
0 -0.019 0.001
0 -0.019 -0.001
-0.019 0 -0.001
-0.019 0 0.001
0 -0.02 0.001
0 -0.02 -0.001
0 -0.021 0.001
0 -0.021 -0.001
0 -0.022 0.001
0 -0.022 -0.001
0 -0.023 0.001
0 -0.023 -0.001
0 -0.024 0.001
0 -0.024 -0.001
3.66897e-05 -0.025 0.001
3.66897e-05 -0.025 -0.001
0.000456 -0.0254 -0.001
0.000456 -0.0254 0.001
0.000456 0.0254 0.001
0.000456 0.0254 -0.001
-0.00076 0.0254 0.001
-0.00076 0.0254 -0.001
0.001672 -0.0254 0.001
0.001672 -0.0254 -0.001
0.001672 0.0254 0.001
0.001672 0.0254 -0.001
-0.001976 0.0254 0.001
-0.001976 0.0254 -0.001
0.002888 -0.0254 0.001
0.002888 -0.0254 -0.001
0.002888 0.0254 0.001
0.002888 0.0254 -0.001
-0.003192 0.0254 0.001
-0.003192 0.0254 -0.001
0.004104 -0.0254 0.001
0.004104 -0.0254 -0.001
0.004104 0.0254 0.001
0.004104 0.0254 -0.001
-0.004408 0.0254 0.001
-0.004408 0.0254 -0.001
0.00532 -0.0254 0.001
0.00532 -0.0254 -0.001
0.00532 0.0254 0.001
0.00532 0.0254 -0.001
-0.005624 0.0254 0.001
-0.005624 0.0254 -0.001
0.006536 -0.0254 0.001
0.006536 -0.0254 -0.001
0.006536 0.0254 0.001
0.006536 0.0254 -0.001
-0.00684 0.0254 0.001
-0.00684 0.0254 -0.001
0.007752 -0.0254 0.001
0.007752 -0.0254 -0.001
0.007752 0.0254 0.001
0.007752 0.0254 -0.001
-0.008056 0.0254 0.001
-0.008056 0.0254 -0.001
0.008968 -0.0254 0.001
0.008968 -0.0254 -0.001
0.008968 0.0254 0.001
0.008968 0.0254 -0.001
-0.009272 0.0254 0.001
-0.009272 0.0254 -0.001
0.010184 -0.0254 0.001
0.010184 -0.0254 -0.001
0.010184 0.0254 0.001
0.010184 0.0254 -0.001
-0.010488 0.0254 0.001
-0.010488 0.0254 -0.001
0.0114 -0.0254 0.001
0.0114 -0.0254 -0.001
0.0114 0.0254 0.001
0.0114 0.0254 -0.001
-0.011704 0.0254 0.001
-0.011704 0.0254 -0.001
0.012616 -0.0254 0.001
0.012616 -0.0254 -0.001
0.012616 0.0254 0.001
0.012616 0.0254 -0.001
-0.01292 0.0254 0.001
-0.01292 0.0254 -0.001
0.013832 -0.0254 0.001
0.013832 -0.0254 -0.001
0.013832 0.0254 0.001
0.013832 0.0254 -0.001
-0.014136 0.0254 0.001
-0.014136 0.0254 -0.001
0.015048 -0.0254 0.001
0.015048 -0.0254 -0.001
0.015048 0.0254 0.001
0.015048 0.0254 -0.001
-0.015352 0.0254 0.001
-0.015352 0.0254 -0.001
0.016264 -0.0254 0.001
0.016264 -0.0254 -0.001
0.016264 0.0254 0.001
0.016264 0.0254 -0.001
-0.016568 0.0254 0.001
-0.016568 0.0254 -0.001
0.01748 -0.0254 0.001
0.01748 -0.0254 -0.001
0.01748 0.0254 0.001
0.01748 0.0254 -0.001
-0.017784 0.0254 0.001
-0.017784 0.0254 -0.001
0.018696 -0.0254 0.001
0.018696 -0.0254 -0.001
0.018696 0.0254 0.001
0.018696 0.0254 -0.001
-0.019 0.0254 -0.001
-0.019 0.0254 0.001
0.019912 -0.0254 0.001
0.019912 -0.0254 -0.001
0.019912 0.0254 0.001
0.019912 0.0254 -0.001
0.021128 -0.0254 0.001
0.021128 -0.0254 -0.001
0.021128 0.0254 0.001
0.021128 0.0254 -0.001
0.022344 -0.0254 0.001
0.022344 -0.0254 -0.001
0.022344 0.0254 0.001
0.022344 0.0254 -0.001
0.02356 -0.0254 0.001
0.02356 -0.0254 -0.001
0.02356 0.0254 0.001
0.02356 0.0254 -0.001
0.024776 -0.0254 0.001
0.024776 -0.0254 -0.001
0.024776 0.0254 0.001
0.024776 0.0254 -0.001
0.025992 -0.0254 0.001
0.025992 -0.0254 -0.001
0.025992 0.0254 0.001
0.025992 0.0254 -0.001
0.027208 -0.0254 0.001
0.027208 -0.0254 -0.001
0.027208 0.0254 0.001
0.027208 0.0254 -0.001
0.028424 -0.0254 0.001
0.028424 -0.0254 -0.001
0.028424 0.0254 0.001
0.028424 0.0254 -0.001
0.02964 -0.0254 0.001
0.02964 -0.0254 -0.001
0.02964 0.0254 0.001
0.02964 0.0254 -0.001
0.030856 -0.0254 0.001
0.030856 -0.0254 -0.001
0.030856 0.0254 0.001
0.030856 0.0254 -0.001
0.032072 -0.0254 0.001
0.032072 -0.0254 -0.001
0.032072 0.0254 0.001
0.032072 0.0254 -0.001
0.033288 -0.0254 0.001
0.033288 -0.0254 -0.001
0.033288 0.0254 0.001
0.033288 0.0254 -0.001
0.034504 -0.0254 0.001
0.034504 -0.0254 -0.001
0.034504 0.0254 0.001
0.034504 0.0254 -0.001
0.03572 -0.0254 0.001
0.03572 -0.0254 -0.001
0.03572 0.0254 0.001
0.03572 0.0254 -0.001
0.036936 -0.0254 0.001
0.036936 -0.0254 -0.001
0.036936 0.0254 0.001
0.036936 0.0254 -0.001
0.038152 -0.0254 0.001
0.038152 -0.0254 -0.001
0.038152 0.0254 0.001
0.038152 0.0254 -0.001
0.039368 -0.0254 0.001
0.039368 -0.0254 -0.001
0.039368 0.0254 0.001
0.039368 0.0254 -0.001
0.040584 -0.0254 0.001
0.040584 -0.0254 -0.001
0.040584 0.0254 0.001
0.040584 0.0254 -0.001
0.0418 -0.0254 0.001
0.0418 -0.0254 -0.001
0.0418 0.0254 0.001
0.0418 0.0254 -0.001
0.043016 -0.0254 0.001
0.043016 -0.0254 -0.001
0.043016 0.0254 0.001
0.043016 0.0254 -0.001
0.044232 -0.0254 0.001
0.044232 -0.0254 -0.001
0.044232 0.0254 0.001
0.044232 0.0254 -0.001
0.045448 -0.0254 0.001
0.045448 -0.0254 -0.001
0.045448 0.0254 0.001
0.045448 0.0254 -0.001
0.046664 -0.0254 0.001
0.046664 -0.0254 -0.001
0.046664 0.0254 0.001
0.046664 0.0254 -0.001
0.04788 -0.0254 0.001
0.04788 -0.0254 -0.001
0.04788 0.0254 0.001
0.04788 0.0254 -0.001
0.049096 -0.0254 0.001
0.049096 -0.0254 -0.001
0.049096 0.0254 0.001
0.049096 0.0254 -0.001
0.050312 -0.0254 0.001
0.050312 -0.0254 -0.001
0.050312 0.0254 0.001
0.050312 0.0254 -0.001
0.051528 -0.0254 0.001
0.051528 -0.0254 -0.001
0.051528 0.0254 0.001
0.051528 0.0254 -0.001
0.052744 -0.0254 0.001
0.052744 -0.0254 -0.001
0.052744 0.0254 0.001
0.052744 0.0254 -0.001
0.05396 -0.0254 0.001
0.05396 -0.0254 -0.001
0.05396 0.0254 0.001
0.05396 0.0254 -0.001
0.055176 -0.0254 0.001
0.055176 -0.0254 -0.001
0.055176 0.0254 0.001
0.055176 0.0254 -0.001
0.056392 -0.0254 0.001
0.056392 -0.0254 -0.001
0.056392 0.0254 0.001
0.056392 0.0254 -0.001
0.057608 -0.0254 0.001
0.057608 -0.0254 -0.001
0.057608 0.0254 0.001
0.057608 0.0254 -0.001
0.058824 -0.0254 0.001
0.058824 -0.0254 -0.001
0.058824 0.0254 0.001
0.058824 0.0254 -0.001
0.06004 -0.0254 0.001
0.06004 -0.0254 -0.001
0.06004 0.0254 0.001
0.06004 0.0254 -0.001
0.061256 -0.0254 0.001
0.061256 -0.0254 -0.001
0.061256 0.0254 0.001
0.061256 0.0254 -0.001
0.062472 -0.0254 0.001
0.062472 -0.0254 -0.001
0.062472 0.0254 0.001
0.062472 0.0254 -0.001
0.063688 -0.0254 0.001
0.063688 -0.0254 -0.001
0.063688 0.0254 0.001
0.063688 0.0254 -0.001
0.064904 -0.0254 0.001
0.064904 -0.0254 -0.001
0.064904 0.0254 0.001
0.064904 0.0254 -0.001
0.06612 -0.0254 0.001
0.06612 -0.0254 -0.001
0.06612 0.0254 0.001
0.06612 0.0254 -0.001
0.067336 -0.0254 0.001
0.067336 -0.0254 -0.001
0.067336 0.0254 0.001
0.067336 0.0254 -0.001
0.068552 -0.0254 0.001
0.068552 -0.0254 -0.001
0.068552 0.0254 0.001
0.068552 0.0254 -0.001
0.069768 -0.0254 0.001
0.069768 -0.0254 -0.001
0.069768 0.0254 0.001
0.069768 0.0254 -0.001
0.070984 -0.0254 0.001
0.070984 -0.0254 -0.001
0.070984 0.0254 0.001
0.070984 0.0254 -0.001
0.0722 -0.0254 0.001
0.0722 -0.0254 -0.001
0.0722 0.0254 0.001
0.0722 0.0254 -0.001
0.073416 -0.0254 0.001
0.073416 -0.0254 -0.001
0.073416 0.0254 0.001
0.073416 0.0254 -0.001
0.074632 -0.0254 0.001
0.074632 -0.0254 -0.001
0.074632 0.0254 0.001
0.074632 0.0254 -0.001
0.075848 -0.0254 0.001
0.075848 -0.0254 -0.001
0.075848 0.0254 0.001
0.075848 0.0254 -0.001
0.077064 -0.0254 0.001
0.077064 -0.0254 -0.001
0.077064 0.0254 0.001
0.077064 0.0254 -0.001
0.07828 -0.0254 0.001
0.07828 -0.0254 -0.001
0.07828 0.0254 0.001
0.07828 0.0254 -0.001
0.079496 -0.0254 0.001
0.079496 -0.0254 -0.001
0.079496 0.0254 0.001
0.079496 0.0254 -0.001
0.080712 -0.0254 0.001
0.080712 -0.0254 -0.001
0.080712 0.0254 0.001
0.080712 0.0254 -0.001
0.081928 -0.0254 0.001
0.081928 -0.0254 -0.001
0.081928 0.0254 0.001
0.081928 0.0254 -0.001
0.083144 -0.0254 0.001
0.083144 -0.0254 -0.001
0.083144 0.0254 0.001
0.083144 0.0254 -0.001
0.08436 -0.0254 0.001
0.08436 -0.0254 -0.001
0.08436 0.0254 0.001
0.08436 0.0254 -0.001
0.085576 -0.0254 0.001
0.085576 -0.0254 -0.001
0.085576 0.0254 0.001
0.085576 0.0254 -0.001
0.086792 -0.0254 0.001
0.086792 -0.0254 -0.001
0.086792 0.0254 0.001
0.086792 0.0254 -0.001
0.088008 -0.0254 0.001
0.088008 -0.0254 -0.001
0.088008 0.0254 0.001
0.088008 0.0254 -0.001
0.089224 -0.0254 0.001
0.089224 -0.0254 -0.001
0.089224 0.0254 0.001
0.089224 0.0254 -0.001
0.09044 -0.0254 0.001
0.09044 -0.0254 -0.001
0.09044 0.0254 0.001
0.09044 0.0254 -0.001
0.091656 -0.0254 0.001
0.091656 -0.0254 -0.001
0.091656 0.0254 0.001
0.091656 0.0254 -0.001
0.092872 -0.0254 0.001
0.092872 -0.0254 -0.001
0.092872 0.0254 0.001
0.092872 0.0254 -0.001
0.094088 -0.0254 0.001
0.094088 -0.0254 -0.001
0.094088 0.0254 0.001
0.094088 0.0254 -0.001
0.095304 -0.0254 0.001
0.095304 -0.0254 -0.001
0.095304 0.0254 0.001
0.095304 0.0254 -0.001
0.09652 -0.0254 0.001
0.09652 -0.0254 -0.001
0.09652 0.0254 0.001
0.09652 0.0254 -0.001
0.097736 -0.0254 0.001
0.097736 -0.0254 -0.001
0.097736 0.0254 0.001
0.097736 0.0254 -0.001
0.098952 -0.0254 0.001
0.098952 -0.0254 -0.001
0.098952 0.0254 0.001
0.098952 0.0254 -0.001
0.100168 -0.0254 0.001
0.100168 -0.0254 -0.001
0.100168 0.0254 0.001
0.100168 0.0254 -0.001
0.101384 -0.0254 0.001
0.101384 -0.0254 -0.001
0.101384 0.0254 0.001
0.101384 0.0254 -0.001
0.1026 -0.0254 0.001
0.1026 -0.0254 -0.001
0.1026 0.0254 0.001
0.1026 0.0254 -0.001
0.103816 -0.0254 0.001
0.103816 -0.0254 -0.001
0.103816 0.0254 0.001
[...]
CELL_DATA 529
FIELD attributes 1
divSf 3 529 double
-1.19941e-11 -1.51505e-11 0
0 -2.61215e-12 0
0 -2.61215e-12 0
0 -2.61215e-12 0
0 -2.61215e-12 0
0 -2.61215e-12 0
0 -2.61215e-12 0
0 -2.61215e-12 0
0 -2.61215e-12 0
0 -2.61215e-12 0
0 -2.61215e-12 0
0 -2.61215e-12 0
0 -2.61215e-12 0
0 -2.61215e-12 0
0 -2.61215e-12 0
0 -2.61215e-12 0
0 -2.61215e-12 0
0 -2.61215e-12 0
0 -2.17679e-12 0
0 -2.61215e-12 0
0 -2.61215e-12 0
0 -2.61215e-12 0
0 -2.61215e-12 0
0 -2.61215e-12 0
0 -2.61215e-12 0
0 -2.17679e-12 0
0 -2.61215e-12 0
0 -2.61215e-12 0
0 -2.17679e-12 0
0 -2.61215e-12 0
0 -2.61215e-12 0
0 -2.17679e-12 0
0 -2.61215e-12 0
0 -2.17679e-12 0
0 -2.61215e-12 0
0 -2.61215e-12 0
0 -2.17679e-12 0
0 -2.61215e-12 0
0 -2.61215e-12 0
0 -2.61215e-12 0
0 -2.61215e-12 0
0 -2.17679e-12 0
0 -2.61215e-12 0
0 -2.61215e-12 0
0 -2.17679e-12 0
0 -2.61215e-12 0
0 -2.61215e-12 0
0 -2.17679e-12 0
0 -2.61215e-12 0
0 -2.61215e-12 0
0 -2.61215e-12 0
0 -2.61215e-12 0
0 -2.61215e-12 0
0 -2.61215e-12 0
0 -2.61215e-12 0
0 -2.61215e-12 0
0 -2.61215e-12 0
0 -2.61215e-12 0
0 -2.61215e-12 0
0 -2.61215e-12 0
0 -2.61215e-12 0
0 -2.61215e-12 0
0 -2.61215e-12 0
0 -2.61215e-12 0
0 -2.61215e-12 0
0 -2.61215e-12 0
0 -2.61215e-12 0
0 -2.61215e-12 0
0 -2.61215e-12 0
0 -2.61215e-12 0
0 -2.61215e-12 0
0 -2.61215e-12 0
0 -2.61215e-12 0
0 -2.61215e-12 0
0 -2.61215e-12 0
0 -2.61215e-12 0
0 -2.61215e-12 0
0 -2.61215e-12 0
0 -2.61215e-12 0
0 -2.61215e-12 0
0 -2.61215e-12 0
0 -2.61215e-12 0
0 -2.61215e-12 0
0 -2.61215e-12 0
0 -2.61215e-12 0
0 -2.61215e-12 0
0 -2.61215e-12 0
0 -2.61215e-12 0
0 -2.61215e-12 0
0 -2.61215e-12 0
0 -2.61215e-12 0
0 -2.61215e-12 0
0 -2.61215e-12 0
0 -2.61215e-12 0
0 -2.61215e-12 0
0 -2.61215e-12 0
0 -2.61215e-12 0
0 -2.61215e-12 0
0 -2.61215e-12 0
0 -2.61215e-12 0
0 -2.61215e-12 0
0 -2.61215e-12 0
0 -2.61215e-12 0
0 -2.61215e-12 0
0 -2.61215e-12 0
0 -2.61215e-12 0
0 -2.61215e-12 0
0 -2.61215e-12 0
0 -2.61215e-12 0
0 -2.61215e-12 0
0 -2.61215e-12 0
0 -2.61215e-12 0
0 -2.61215e-12 0
0 -2.61215e-12 0
0 -2.61215e-12 0
0 -2.61215e-12 0
0 -2.61215e-12 0
0 -2.61215e-12 0
0 -2.61215e-12 0
0 -2.61215e-12 0
0 -2.61215e-12 0
0 -2.61215e-12 0
0 -2.61215e-12 0
0 -2.61215e-12 0
0 -2.61215e-12 0
0 -2.61215e-12 0
0 -2.61215e-12 0
0 -2.61215e-12 0
0 -2.61215e-12 0
0 -2.61215e-12 0
0 -2.61215e-12 0
0 -2.61215e-12 0
0 -2.61215e-12 0
0 -2.61215e-12 0
0 -2.61215e-12 0
0 -2.61215e-12 0
0 -2.61215e-12 0
0 -2.61215e-12 0
0 -2.61215e-12 0
0 -2.61215e-12 0
0 -2.61215e-12 0
0 -2.61215e-12 0
0 -2.61215e-12 0
0 -2.61215e-12 0
0 -2.61215e-12 0
0 -2.61215e-12 0
0 -2.61215e-12 0
0 -2.61215e-12 0
0 -2.61215e-12 0
0 -2.61215e-12 0
0 -2.61215e-12 0
0 -2.61215e-12 0
0 -2.61215e-12 0
0 -2.61215e-12 0
0 -2.61215e-12 0
0 -2.61215e-12 0
0 -2.61215e-12 0
0 -2.61215e-12 0
0 -2.61215e-12 0
0 -2.61215e-12 0
0 -2.61215e-12 0
0 -2.61215e-12 0
0 -2.61215e-12 0
0 -2.61215e-12 0
0 -2.61215e-12 0
0 -2.61215e-12 0
0 -2.61215e-12 0
0 -2.61215e-12 0
0 -2.61215e-12 0
0 -2.61215e-12 0
-6.43234e-14 -3.08752e-12 0
1.02132e-13 -4.90231e-12 0
-211.144 -1.21881e-11 0
-2.41924e-12 1.36082e-13 0
-5.69002e-14 180.636 0
0 -1.25748e-12 0
0 -1.48515e-12 3.86758e-15
0 -1.81348e-12 4.72262e-15
9.70115e-14 -2.32828e-12 0
0 -3.25139e-12 0
-1.12233e-13 -5.38718e-12 0
-35.3652 -1.56983e-11 0
-2.32191e-12 0 0
-1.15892e-13 23.9287 -2.8973e-15
-2.6814e-14 -1.28707e-12 0
0 -1.52662e-12 3.97557e-15
7.81595e-14 -1.87583e-12 0
5.067e-14 -2.43216e-12 0
7.20284e-14 -3.45736e-12 0
-1.24505e-13 -5.97625e-12 -1.55631e-14
1.70573e-11 2626.8 0
-2.32191e-12 0 0
-14.5021 -1.13561e-12 0
0 -1.3181e-12 0
0 -1.5705e-12 0
4.04676e-14 -1.94244e-12 0
0 -2.54517e-12 0
0 -3.69015e-12 0
1.39761e-13 -6.70854e-12 1.74702e-14
2.48841e-11 8353.67 0
-1.85753e-12 0 0
-32.3 -1.15979e-12 0
5.6284e-14 -1.35082e-12 0
-1.34762e-13 -1.61714e-12 0
1.67855e-13 -2.01427e-12 5.24548e-15
0 -2.66989e-12 0
-8.24637e-14 -3.95826e-12 3.28188e-12
0 -7.64932e-12 6.34224e-12
3.96372e-11 -5.00681e-11 0
-2.32191e-12 0 0
-5.50607e-14 0 0
9.87358e-14 -1.18483e-12 3.08549e-15
-1.73107e-13 -1.38486e-12 0
-1.04137e-13 -1.66619e-12 0
2.61378e-13 -2.09103e-12 1.73372e-12
0 -2.80664e-12 2.33436e-12
-8.8894e-14 -4.26691e-12 -1.11117e-14
-1.85309e-13 -8.89483e-12 2.31636e-14
7.24355e-11 -8.44282e-11 0
-2.32191e-12 0 0
-1.22327e-13 -8.8965e-14 6.95039e-16
0 -1.2112e-12 0
0 -1.42107e-12 -3.7007e-15
1.43241e-13 -1.7189e-12 0
-9.06074e-14 -2.17458e-12 0
1.23284e-13 -2.95882e-12 0
0 -4.62774e-12 0
-290.185 -1.06167e-11 -2.76476e-14
-2.32191e-12 0 0
-1.12637e-13 282.065 -6.53132e-13
0 -1.23857e-12 -1.03015e-12
6.07882e-14 -1.45892e-12 0
-1.47883e-13 -1.7746e-12 0
4.71779e-14 -2.26454e-12 0
6.517e-14 -3.12816e-12 0
-1.05345e-13 -5.05655e-12 0
-161.58 -1.3183e-11 0
-2.32191e-12 0 0
1.14455e-14 128.572 -2.86138e-15
5.28016e-14 -1.26724e-12 -3.3001e-15
0 -1.49878e-12 0
0 -1.83393e-12 -4.77586e-15
-4.92142e-14 -2.36228e-12 0
6.91305e-14 -3.31826e-12 0
1.16123e-13 -5.5739e-12 0
-2.32191e-12 0 0
-2.32191e-12 0 0
-1.85753e-12 0 0
-2.32191e-12 0 0
-2.32191e-12 0 0
-2.32191e-12 0 0
-1.85753e-12 0 0
-2.32191e-12 0 0
-2.32191e-12 0 0
-1.85753e-12 0 0
-2.32191e-12 0 0
-1.85753e-12 0 0
-2.32191e-12 0 0
-2.32191e-12 0 0
-2.32191e-12 0 0
-2.32191e-12 0 0
-9.97675e-13 0 0
-1.71683e-13 -128.572 2.86138e-15
-5.28016e-14 1.26724e-12 3.3001e-15
1.24898e-13 1.49878e-12 0
0 1.83393e-12 4.77586e-15
-4.92142e-14 2.36228e-12 0
-6.91305e-14 3.31826e-12 0
2.32246e-13 5.5739e-12 0
-1.12637e-13 -282.065 -6.53132e-13
-1.03214e-13 1.23857e-12 -1.02692e-12
1.82365e-13 1.45892e-12 0
-1.47883e-13 1.7746e-12 0
4.71779e-14 2.26454e-12 0
-6.517e-14 3.12816e-12 0
2.1069e-13 5.05655e-12 0
-161.58 1.3183e-11 0
-1.22327e-13 8.8965e-14 -6.95039e-16
0 1.2112e-12 0
1.18422e-13 1.42107e-12 3.7007e-15
-1.43241e-13 1.7189e-12 0
9.06074e-14 2.17458e-12 0
1.23284e-13 2.95882e-12 0
0 4.62774e-12 0
-290.185 1.06167e-11 2.76476e-14
-5.50607e-14 0 0
9.87358e-14 1.18483e-12 -3.08549e-15
-1.73107e-13 1.38486e-12 0
3.47124e-14 1.66619e-12 0
8.71261e-14 2.09103e-12 -1.73372e-12
-1.16943e-13 2.80664e-12 -2.33436e-12
8.8894e-14 4.26691e-12 1.11117e-14
0 8.89483e-12 -2.31636e-14
7.24355e-11 8.44282e-11 0
-32.3 1.15979e-12 0
5.6284e-14 1.35082e-12 0
-1.34762e-13 1.61714e-12 0
1.67855e-13 2.01427e-12 0
0 2.66989e-12 0
0 3.95826e-12 -3.28188e-12
-1.59361e-13 7.64932e-12 -6.34224e-12
3.96372e-11 5.00681e-11 0
-14.5021 1.13561e-12 0
0 1.3181e-12 0
1.30875e-13 1.5705e-12 -4.08983e-15
-2.02338e-13 1.94244e-12 0
1.06049e-13 2.54517e-12 0
7.68781e-14 3.69015e-12 0
1.39761e-13 6.70854e-12 -1.74702e-14
2.48841e-11 -8353.67 0
-1.15892e-13 -23.9287 2.8973e-15
-2.6814e-14 1.28707e-12 0
1.27218e-13 1.52662e-12 -3.97557e-15
-7.81595e-14 1.87583e-12 0
5.067e-14 2.43216e-12 0
7.20284e-14 3.45736e-12 0
-1.24505e-13 5.97625e-12 1.55631e-14
1.70573e-11 -2626.8 0
-5.69002e-14 -180.636 0
0 1.25748e-12 0
9.2822e-14 1.48515e-12 -3.86758e-15
-1.88905e-13 1.81348e-12 -4.72262e-15
4.85058e-14 2.32828e-12 0
0 3.25139e-12 0
-1.12233e-13 5.38718e-12 0
-35.3652 1.56983e-11 0
0 2.61215e-12 0
0 2.61215e-12 0
0 2.61215e-12 0
0 2.61215e-12 0
0 2.61215e-12 0
0 2.61215e-12 0
0 2.61215e-12 0
0 2.61215e-12 0
0 2.61215e-12 0
0 2.61215e-12 0
0 2.61215e-12 0
0 2.61215e-12 0
0 2.61215e-12 0
0 2.61215e-12 0
0 2.61215e-12 0
0 2.61215e-12 0
0 2.61215e-12 0
0 2.61215e-12 0
0 2.61215e-12 0
0 2.61215e-12 0
0 2.61215e-12 0
0 2.61215e-12 0
0 2.61215e-12 0
0 2.61215e-12 0
0 2.61215e-12 0
0 2.61215e-12 0
0 2.61215e-12 0
0 2.61215e-12 0
0 2.61215e-12 0
0 3.04751e-12 0
0 2.61215e-12 0
0 2.17679e-12 0
0 2.61215e-12 0
0 2.61215e-12 0
0 2.61215e-12 0
0 2.61215e-12 0
0 2.61215e-12 0
0 2.61215e-12 0
0 2.61215e-12 0
0 2.17679e-12 0
0 2.61215e-12 0
0 2.61215e-12 0
0 2.61215e-12 0
0 2.61215e-12 0
0 2.61215e-12 0
0 2.61215e-12 0
0 2.61215e-12 0
0 2.61215e-12 0
0 2.61215e-12 0
0 2.61215e-12 0
0 2.61215e-12 0
0 2.61215e-12 0
0 2.61215e-12 0
0 2.61215e-12 0
0 2.61215e-12 0
0 2.61215e-12 0
0 2.61215e-12 0
0 2.61215e-12 0
0 2.61215e-12 0
0 2.61215e-12 0
0 2.61215e-12 0
0 2.61215e-12 0
0 2.61215e-12 0
0 2.61215e-12 0
0 2.61215e-12 0
0 2.61215e-12 0
0 2.61215e-12 0
0 2.61215e-12 0
0 2.61215e-12 0
0 2.61215e-12 0
0 2.61215e-12 0
0 2.61215e-12 0
0 2.61215e-12 0
0 2.61215e-12 0
0 2.61215e-12 0
0 2.61215e-12 0
0 2.61215e-12 0
0 2.61215e-12 0
0 2.61215e-12 0
0 2.61215e-12 0
0 2.61215e-12 0
0 2.61215e-12 0
0 2.61215e-12 0
0 2.61215e-12 0
0 2.61215e-12 0
0 2.61215e-12 0
0 2.61215e-12 0
0 2.61215e-12 0
0 2.61215e-12 0
0 2.61215e-12 0
0 2.61215e-12 0
0 2.61215e-12 0
0 2.61215e-12 0
0 2.61215e-12 0
0 2.61215e-12 0
0 2.61215e-12 0
0 2.61215e-12 0
0 2.61215e-12 0
0 2.61215e-12 0
0 2.61215e-12 0
0 2.61215e-12 0
0 2.61215e-12 0
0 2.61215e-12 0
0 2.61215e-12 0
0 2.61215e-12 0
0 2.61215e-12 0
0 2.61215e-12 0
0 2.61215e-12 0
0 2.61215e-12 0
0 2.61215e-12 0
0 2.61215e-12 0
0 2.61215e-12 0
0 2.61215e-12 0
0 2.61215e-12 0
0 2.61215e-12 0
0 2.61215e-12 0
0 2.61215e-12 0
0 2.61215e-12 0
0 2.61215e-12 0
0 2.61215e-12 0
0 2.61215e-12 0
0 2.61215e-12 0
0 2.61215e-12 0
0 2.61215e-12 0
0 2.61215e-12 0
0 2.61215e-12 0
0 2.61215e-12 0
0 2.61215e-12 0
0 2.61215e-12 0
0 2.61215e-12 0
0 2.61215e-12 0
0 2.61215e-12 0
0 2.61215e-12 0
0 2.61215e-12 0
0 2.61215e-12 0
0 2.61215e-12 0
0 2.61215e-12 0
0 2.61215e-12 0
0 2.61215e-12 0
0 2.61215e-12 0
0 2.61215e-12 0
0 2.61215e-12 0
0 2.61215e-12 0
0 2.61215e-12 0
0 2.61215e-12 0
0 2.61215e-12 0
0 2.61215e-12 0
0 2.61215e-12 0
0 2.61215e-12 0
0 2.61215e-12 0
0 2.61215e-12 0
0 2.61215e-12 0
0 2.61215e-12 0
0 2.61215e-12 0
0 2.61215e-12 0
0 2.61215e-12 0
0 2.61215e-12 0
0 2.61215e-12 0
0 2.61215e-12 0
0 2.61215e-12 0
0 2.61215e-12 0
0 2.61215e-12 0
0 2.61215e-12 0
0 2.61215e-12 0
0 2.61215e-12 0
0 2.61215e-12 0
0 2.61215e-12 0
0 2.61215e-12 0
0 2.61215e-12 0
0 2.61215e-12 0
0 2.61215e-12 0
0 2.61215e-12 0
0 2.61215e-12 0
0 2.61215e-12 0
0 2.61215e-12 0
0 2.61215e-12 0
0 2.61215e-12 0
0 2.61215e-12 0
0 2.61215e-12 0
0 2.61215e-12 0
0 2.61215e-12 0
0 2.61215e-12 0
0 2.61215e-12 0
0 2.61215e-12 0
0 2.61215e-12 0
-6.43234e-14 3.08752e-12 0
1.02132e-13 4.90231e-12 0
-211.144 1.21881e-11 0
0 -8.70716e-13 0
0 -1.04486e-12 0
0 -1.04486e-12 0
0 -1.04486e-12 0
0 -1.04486e-12 0
0 -1.04486e-12 0
0 -1.04486e-12 0
0 -1.04486e-12 0
0 -1.04486e-12 0
0 -1.04486e-12 0
0 -1.04486e-12 0
0 -1.04486e-12 0
0 -1.04486e-12 0
0 -1.04486e-12 0
0 -1.04486e-12 0
