/*--------------------------------*- C++ -*----------------------------------*\
| =========                 |                                                 |
| \\      /  F ield         | foam-extend: Open Source CFD                    |
|  \\    /   O peration     | Version:     4.1                                |
|   \\  /    A nd           | Web:         http://www.foam-extend.org         |
|    \\/     M anipulation  |                                                 |
\*---------------------------------------------------------------------------*/
FoamFile
{
    version     2.0;
    format      ascii;
    class       surfaceScalarField;
    location    "0";
    object      phi;
}
// * * * * * * * * * * * * * * * * * * * * * * * * * * * * * * * * * * * * * //

dimensions      [0 3 -1 0 0 0 0];

internalField   nonuniform List<scalar> 
29690
(
2e-20
0
2e-20
0
2e-20
0
2e-20
0
2e-20
0
2e-20
0
2e-20
0
2e-20
0
2e-20
0
2e-20
0
2e-20
0
2e-20
0
2e-20
0
2e-20
0
2e-20
0
2e-20
0
2e-20
0
2e-20
0
2e-20
0
2e-20
0
2e-20
0
2e-20
0
2e-20
0
2e-20
0
2e-20
0
2e-20
0
2e-20
0
2e-20
0
2e-20
0
2e-20
0
2e-20
0
2e-20
0
2e-20
0
2e-20
0
2e-20
0
2e-20
0
2e-20
0
2e-20
0
2e-20
0
2e-20
0
2e-20
0
2e-20
0
2e-20
0
2e-20
0
2e-20
0
2e-20
0
2e-20
0
2e-20
0
2e-20
0
2e-20
0
2e-20
0
2e-20
0
2e-20
0
2e-20
0
2e-20
0
2e-20
0
2e-20
0
2e-20
0
2e-20
0
2e-20
0
2e-20
0
2e-20
0
2e-20
0
2e-20
0
2e-20
0
2e-20
0
2e-20
0
2e-20
0
2e-20
0
2e-20
0
2e-20
0
2e-20
0
2e-20
0
2e-20
0
2e-20
0
2e-20
0
2e-20
0
2e-20
0
2e-20
0
2e-20
0
2e-20
0
2e-20
0
2e-20
0
2e-20
0
2e-20
0
2e-20
0
2e-20
0
2e-20
0
2e-20
0
2e-20
0
2e-20
0
2e-20
0
2e-20
0
2e-20
0
2e-20
0
2e-20
0
2e-20
0
2e-20
0
2e-20
0
2e-20
0
2e-20
0
2e-20
0
2e-20
0
2e-20
0
2e-20
0
2e-20
0
2e-20
0
2e-20
0
2e-20
0
2e-20
0
2e-20
0
2e-20
0
2e-20
0
2e-20
0
2e-20
0
2e-20
0
2e-20
0
2e-20
0
2e-20
0
2e-20
0
2e-20
0
2e-20
0
2e-20
0
2e-20
0
2e-20
0
2e-20
0
2e-20
0
2e-20
0
2e-20
0
2e-20
0
2e-20
0
2e-20
0
2e-20
0
2e-20
0
2e-20
0
2e-20
0
2e-20
0
2e-20
0
2e-20
0
2e-20
0
2e-20
0
2e-20
0
2e-20
0
2e-20
0
2e-20
0
2e-20
0
2e-20
0
2e-20
0
2e-20
0
2e-20
0
2e-20
0
2e-20
0
2e-20
0
2e-20
0
2e-20
0
2e-20
0
2e-20
0
2e-20
0
2e-20
0
2e-20
0
2e-20
0
2e-20
0
2e-20
0
2e-20
0
2e-20
0
2e-20
0
2e-20
0
2e-20
0
2e-20
0
2e-20
0
2e-20
0
2e-20
0
2e-20
0
2e-20
0
2e-20
0
2e-20
0
2e-20
0
2e-20
0
2e-20
0
2e-20
0
2e-20
0
2e-20
0
2e-20
0
2e-20
0
2e-20
0
2e-20
0
2e-20
0
2e-20
0
2e-20
0
2e-20
0
2e-20
0
2e-20
0
2e-20
0
2e-20
0
2e-20
0
2e-20
0
2e-20
0
2e-20
0
2e-20
0
2e-20
0
2e-20
0
2e-20
0
2e-20
0
2e-20
0
2e-20
0
2e-20
0
2e-20
0
2e-20
0
2e-20
0
2e-20
0
2e-20
0
2e-20
0
2e-20
0
2e-20
0
2e-20
0
2e-20
0
2e-20
0
2e-20
0
2e-20
0
2e-20
0
2e-20
0
2e-20
0
2e-20
0
2e-20
0
2e-20
0
2e-20
0
2e-20
0
2e-20
0
2e-20
0
2e-20
0
2e-20
0
2e-20
0
2e-20
0
2e-20
0
2e-20
0
2e-20
0
2e-20
0
2e-20
0
2e-20
0
2e-20
0
2e-20
0
2e-20
0
2e-20
0
2e-20
0
2e-20
0
2e-20
0
2e-20
0
2e-20
0
2e-20
0
0
2e-20
0
2e-20
0
2e-20
0
2e-20
0
2e-20
0
2e-20
0
2e-20
0
2e-20
0
2e-20
0
2e-20
0
2e-20
0
2e-20
0
2e-20
0
2e-20
0
2e-20
0
2e-20
0
2e-20
0
2e-20
0
2e-20
0
2e-20
0
2e-20
0
2e-20
0
2e-20
0
2e-20
0
2e-20
0
2e-20
0
2e-20
0
2e-20
0
2e-20
0
2e-20
0
2e-20
0
2e-20
0
2e-20
0
2e-20
0
2e-20
0
2e-20
0
2e-20
0
2e-20
0
2e-20
0
2e-20
0
2e-20
0
2e-20
0
2e-20
0
2e-20
0
2e-20
0
2e-20
0
2e-20
0
2e-20
0
2e-20
0
2e-20
0
2e-20
0
2e-20
0
2e-20
0
2e-20
0
2e-20
0
2e-20
0
2e-20
0
2e-20
0
2e-20
0
2e-20
0
2e-20
0
2e-20
0
2e-20
0
2e-20
0
2e-20
0
2e-20
0
2e-20
0
2e-20
0
2e-20
0
2e-20
0
2e-20
0
2e-20
0
2e-20
0
2e-20
0
2e-20
0
2e-20
0
2e-20
0
2e-20
0
2e-20
0
2e-20
0
2e-20
0
2e-20
0
2e-20
0
2e-20
0
2e-20
0
2e-20
0
2e-20
0
2e-20
0
2e-20
0
2e-20
0
2e-20
0
2e-20
0
2e-20
0
2e-20
0
2e-20
0
2e-20
0
2e-20
0
2e-20
0
2e-20
0
2e-20
0
2e-20
0
2e-20
0
2e-20
0
2e-20
0
2e-20
0
2e-20
0
2e-20
0
2e-20
0
2e-20
0
2e-20
0
2e-20
0
2e-20
0
2e-20
0
2e-20
0
2e-20
0
2e-20
0
2e-20
0
2e-20
0
2e-20
0
2e-20
0
2e-20
0
2e-20
0
2e-20
0
2e-20
0
2e-20
0
2e-20
0
2e-20
0
2e-20
0
2e-20
0
2e-20
0
2e-20
0
2e-20
0
2e-20
0
2e-20
0
2e-20
0
2e-20
0
2e-20
0
2e-20
0
2e-20
0
2e-20
0
2e-20
0
2e-20
0
2e-20
0
2e-20
0
2e-20
0
2e-20
0
2e-20
0
2e-20
0
2e-20
0
2e-20
0
2e-20
0
2e-20
0
2e-20
0
2e-20
0
2e-20
0
2e-20
0
2e-20
0
2e-20
0
2e-20
0
2e-20
0
2e-20
0
2e-20
0
2e-20
0
2e-20
0
2e-20
0
2e-20
0
2e-20
0
2e-20
0
2e-20
0
2e-20
0
2e-20
0
2e-20
0
2e-20
0
2e-20
0
2e-20
0
2e-20
0
2e-20
0
2e-20
0
2e-20
0
2e-20
0
2e-20
0
2e-20
0
2e-20
0
2e-20
0
2e-20
0
2e-20
0
2e-20
0
2e-20
0
2e-20
0
2e-20
0
2e-20
0
2e-20
0
2e-20
0
2e-20
0
2e-20
0
2e-20
0
2e-20
0
2e-20
0
2e-20
0
2e-20
0
2e-20
0
2e-20
0
2e-20
0
2e-20
0
2e-20
0
2e-20
0
2e-20
0
2e-20
0
2e-20
0
2e-20
0
2e-20
0
2e-20
0
2e-20
0
2e-20
0
2e-20
0
2e-20
0
2e-20
0
2e-20
0
2e-20
0
2e-20
0
2e-20
0
2e-20
0
2e-20
0
2e-20
0
2e-20
0
2e-20
0
2e-20
0
2e-20
0
2e-20
0
2e-20
0
2e-20
0
2e-20
0
2e-20
0
2e-20
0
2e-20
0
2e-20
0
2e-20
0
2e-20
0
2e-20
0
2e-20
0
2e-20
0
2e-20
0
2e-20
0
2e-20
0
2e-20
0
2e-20
0
2e-20
0
2e-20
0
2e-20
0
0
2e-20
0
2e-20
0
2e-20
0
2e-20
0
2e-20
0
2e-20
0
2e-20
0
2e-20
0
2e-20
0
2e-20
0
2e-20
0
2e-20
0
2e-20
0
2e-20
0
2e-20
0
2e-20
0
2e-20
0
2e-20
0
2e-20
0
2e-20
0
2e-20
0
2e-20
0
2e-20
0
2e-20
0
2e-20
0
2e-20
0
2e-20
0
2e-20
0
2e-20
0
2e-20
0
2e-20
0
2e-20
0
2e-20
0
2e-20
0
2e-20
0
2e-20
0
2e-20
0
2e-20
0
2e-20
0
2e-20
0
2e-20
0
2e-20
0
2e-20
0
2e-20
0
2e-20
0
2e-20
0
2e-20
0
2e-20
0
2e-20
0
2e-20
0
2e-20
0
2e-20
0
2e-20
0
2e-20
0
2e-20
0
2e-20
0
2e-20
0
2e-20
0
2e-20
0
2e-20
0
2e-20
0
2e-20
0
2e-20
0
2e-20
0
2e-20
0
2e-20
0
2e-20
0
2e-20
0
2e-20
0
2e-20
0
2e-20
0
2e-20
0
2e-20
0
2e-20
0
2e-20
0
2e-20
0
2e-20
0
2e-20
0
2e-20
0
2e-20
0
2e-20
0
2e-20
0
2e-20
0
2e-20
0
2e-20
0
2e-20
0
2e-20
0
2e-20
0
2e-20
0
2e-20
0
2e-20
0
2e-20
0
2e-20
0
2e-20
0
2e-20
0
2e-20
0
2e-20
0
2e-20
0
2e-20
0
2e-20
0
2e-20
0
2e-20
0
2e-20
0
2e-20
0
2e-20
0
2e-20
0
2e-20
0
2e-20
0
2e-20
0
2e-20
0
2e-20
0
2e-20
0
2e-20
0
2e-20
0
2e-20
0
2e-20
0
2e-20
0
2e-20
0
2e-20
0
2e-20
0
2e-20
0
2e-20
0
2e-20
0
2e-20
0
2e-20
0
2e-20
0
2e-20
0
2e-20
0
2e-20
0
2e-20
0
2e-20
0
2e-20
0
2e-20
0
2e-20
0
2e-20
0
2e-20
0
2e-20
0
2e-20
0
2e-20
0
2e-20
0
2e-20
0
2e-20
0
2e-20
0
2e-20
0
2e-20
0
2e-20
0
2e-20
0
2e-20
0
2e-20
0
2e-20
0
2e-20
0
2e-20
0
2e-20
0
2e-20
0
2e-20
0
2e-20
0
2e-20
0
2e-20
0
2e-20
0
2e-20
0
2e-20
0
2e-20
0
2e-20
0
2e-20
0
2e-20
0
2e-20
0
2e-20
0
2e-20
0
2e-20
0
2e-20
0
2e-20
0
2e-20
0
2e-20
0
2e-20
0
2e-20
0
2e-20
0
2e-20
0
2e-20
0
2e-20
0
2e-20
0
2e-20
0
2e-20
0
2e-20
0
2e-20
0
2e-20
0
2e-20
0
2e-20
0
2e-20
0
2e-20
0
2e-20
0
2e-20
0
2e-20
0
2e-20
0
2e-20
0
2e-20
0
2e-20
0
2e-20
0
2e-20
0
2e-20
0
2e-20
0
2e-20
0
2e-20
0
2e-20
0
2e-20
0
2e-20
0
2e-20
0
2e-20
0
2e-20
0
2e-20
0
2e-20
0
2e-20
0
2e-20
0
2e-20
0
2e-20
0
2e-20
0
2e-20
0
2e-20
0
2e-20
0
2e-20
0
2e-20
0
2e-20
0
2e-20
0
2e-20
0
2e-20
0
2e-20
0
2e-20
0
2e-20
0
2e-20
0
2e-20
0
2e-20
0
2e-20
0
2e-20
0
2e-20
0
2e-20
0
2e-20
0
2e-20
0
2e-20
0
2e-20
0
2e-20
0
2e-20
0
2e-20
0
2e-20
0
2e-20
0
2e-20
0
2e-20
0
2e-20
0
2e-20
0
2e-20
0
2e-20
0
0
2e-20
0
2e-20
0
2e-20
0
2e-20
0
2e-20
0
2e-20
0
2e-20
0
2e-20
0
2e-20
0
2e-20
0
2e-20
0
2e-20
0
2e-20
0
2e-20
0
2e-20
0
2e-20
8.53346e-23
2e-20
-3.25997e-36
2e-20
-1.16423e-35
2e-20
2.26114e-35
2e-20
-2.93419e-35
2e-20
-7.15079e-36
2e-20
-2.08628e-35
2e-20
-2.70943e-35
2e-20
-3.96004e-35
2e-20
-5.14733e-35
2e-20
0
2e-20
0
2e-20
-2.39382e-35
2e-20
0
2e-20
-2.29013e-35
2e-20
0
2e-20
-6.59663e-35
2e-20
0
2e-20
6.35713e-35
2e-20
-1.04168e-34
2e-20
-2.04999e-35
2e-20
-8.07586e-35
2e-20
-1.99013e-35
2e-20
0
2e-20
-3.87693e-35
2e-20
-7.66155e-35
2e-20
3.78795e-35
2e-20
-1.4993e-34
2e-20
-3.71143e-35
2e-20
-1.96539e-39
2e-20
0
2e-20
3.61619e-35
2e-20
0
2e-20
-3.56404e-35
2e-20
-7.08145e-35
2e-20
0
2e-20
-1.04973e-34
2e-20
6.96102e-35
2e-20
-1.03901e-34
2e-20
-3.44746e-35
2e-20
-3.43279e-35
2e-20
6.83799e-35
2e-20
-3.40636e-35
2e-20
-6.75767e-40
2e-20
6.76741e-35
2e-20
1.0121e-34
2e-20
-1.00929e-34
2e-20
3.35559e-35
2e-20
-3.34765e-35
2e-20
1.00204e-34
2e-20
-9.99982e-35
2e-20
9.98055e-35
2e-20
-6.64187e-35
2e-20
0
2e-20
-6.62069e-35
2e-20
-1.98337e-34
2e-20
1.32049e-34
2e-20
-3.95662e-34
2e-20
1.31737e-34
2e-20
-1.31597e-34
2e-20
0
2e-20
0
2e-20
-3.93709e-34
2e-20
-6.55666e-35
2e-20
-1.31037e-34
2e-20
0
2e-20
0
2e-20
-2.61579e-34
2e-20
-1.96078e-34
2e-20
0
2e-20
-1.95888e-34
2e-20
0
2e-20
-1.30483e-34
2e-20
0
2e-20
0
2e-20
-6.51737e-35
2e-20
-5.54703e-41
2e-20
-6.51363e-35
2e-20
-1.30239e-34
2e-20
-1.30208e-34
2e-20
-1.3018e-34
2e-20
-3.90459e-34
2e-20
-6.50642e-35
2e-20
-1.95158e-34
2e-20
-6.5042e-35
2e-20
-6.50321e-35
2e-20
6.50229e-35
2e-20
-1.30029e-34
2e-20
-1.30012e-34
2e-20
-2.59995e-34
2e-20
-1.94975e-34
2e-20
6.4985e-35
2e-20
-3.24894e-34
2e-20
-6.49731e-35
2e-20
-2.59871e-34
2e-20
-1.94888e-34
2e-20
-2.59832e-34
2e-20
-1.94861e-34
2e-20
-3.89699e-34
2e-20
6.49461e-35
2e-20
-2.59771e-34
2e-20
6.49397e-35
2e-20
-3.24684e-34
2e-20
-1.29869e-34
2e-20
2.59728e-34
2e-20
-5.1944e-34
2e-20
0
2e-20
-3.8956e-34
2e-20
-3.89552e-34
2e-20
0
2e-20
-1.29847e-34
2e-20
-2.59691e-34
2e-20
-2.59689e-34
2e-20
-1.29844e-34
2e-20
-1.29843e-34
2e-20
-5.19369e-34
2e-20
-1.29842e-34
2e-20
-1.29841e-34
2e-20
-2.59681e-34
2e-20
0
2e-20
-3.89519e-34
2e-20
1.29839e-34
2e-20
-2.59678e-34
2e-20
-6.49192e-34
2e-20
-3.89515e-34
2e-20
-2.59676e-34
2e-20
-3.89514e-34
2e-20
-1.29838e-34
2e-20
-1.29839e-34
2e-20
-2.59678e-34
2e-20
-2.5968e-34
2e-20
-1.29841e-34
2e-20
-5.19369e-34
2e-20
-6.49218e-34
2e-20
0
2e-20
2.59695e-34
2e-20
-3.89551e-34
2e-20
-2.59708e-34
2e-20
-1.29858e-34
2e-20
1.29863e-34
2e-20
-5.19477e-34
2e-20
-1.29877e-34
2e-20
-6.49434e-34
2e-20
-3.89695e-34
2e-20
-3.89738e-34
2e-20
0
2e-20
-1.2995e-34
2e-20
-1.29973e-34
2e-20
-5.20003e-34
2e-20
-1.30033e-34
2e-20
-2.60139e-34
2e-20
0
2e-20
-5.20644e-34
2e-20
-2.60437e-34
2e-20
-5.21146e-34
2e-20
-2.60736e-34
2e-20
-1.30466e-34
2e-20
-2.61166e-34
2e-20
-5.22891e-34
2e-20
-6.54443e-34
2e-20
-3.93261e-34
2e-20
-2.62654e-34
2e-20
-2.63245e-34
2e-20
-3.95976e-34
2e-20
3.97385e-34
2e-20
-2.66144e-34
2e-20
0
2e-20
-1.35092e-34
2e-20
1.37087e-34
2e-20
-6.97139e-34
2e-20
-1.8054e-22
2e-20
-2.77487e-22
2e-20
-1.74683e-21
2e-20
0
2e-20
0
2e-20
0
2e-20
0
2e-20
0
2e-20
0
2e-20
0
2e-20
0
2e-20
0
2e-20
0
2e-20
0
2e-20
0
2e-20
0
2e-20
0
2e-20
0
2e-20
0
2e-20
0
2e-20
0
2e-20
0
2e-20
0
2e-20
0
2e-20
0
2e-20
0
2e-20
0
2e-20
0
2e-20
0
2e-20
0
2e-20
0
2e-20
0
2e-20
0
2e-20
0
2e-20
0
2e-20
0
2e-20
0
2e-20
0
2e-20
0
2e-20
0
2e-20
0
2e-20
0
2e-20
0
2e-20
0
2e-20
0
2e-20
0
2e-20
0
2e-20
0
2e-20
0
2e-20
0
2e-20
0
2e-20
0
2e-20
0
2e-20
0
2e-20
0
2e-20
0
2e-20
0
2e-20
0
2e-20
0
2e-20
0
2e-20
0
2e-20
0
2e-20
0
2e-20
0
0
2e-20
0
2e-20
0
2e-20
0
2e-20
0
2e-20
0
2e-20
0
2e-20
0
2e-20
0
2e-20
0
2e-20
0
2e-20
0
2e-20
0
2e-20
0
2e-20
0
1.99987e-20
0
-2.7539e-07
2.7539e-07
2.271e-07
-5.02507e-07
4.6617e-07
-2.39084e-07
6.69628e-07
-2.03472e-07
8.6384e-07
-1.94225e-07
1.05178e-06
-1.87953e-07
1.23337e-06
-1.81598e-07
1.4081e-06
-1.74748e-07
1.57551e-06
-1.67422e-07
1.73523e-06
-1.59731e-07
1.88703e-06
-1.51803e-07
2.03078e-06
-1.43761e-07
2.16649e-06
-1.35715e-07
2.29424e-06
-1.27761e-07
2.41421e-06
-1.19977e-07
2.52663e-06
-1.12423e-07
2.63177e-06
-1.05148e-07
2.72996e-06
-9.81851e-08
2.82151e-06
-9.15559e-08
2.90679e-06
-8.52733e-08
2.98613e-06
-7.93423e-08
3.0599e-06
-7.37615e-08
3.12842e-06
-6.85249e-08
3.19205e-06
-6.36227e-08
3.2511e-06
-5.90426e-08
3.30587e-06
-5.47706e-08
3.35667e-06
-5.07916e-08
3.40376e-06
-4.70898e-08
3.44742e-06
-4.36494e-08
3.48787e-06
-4.04541e-08
3.52536e-06
-3.74885e-08
3.5601e-06
-3.47374e-08
3.59228e-06
-3.21866e-08
3.6221e-06
-2.98221e-08
3.64973e-06
-2.76311e-08
3.67533e-06
-2.56012e-08
3.69904e-06
-2.37206e-08
3.72102e-06
-2.19786e-08
3.74138e-06
-2.03648e-08
3.76025e-06
-1.88699e-08
3.77773e-06
-1.74851e-08
3.79393e-06
-1.62024e-08
3.80895e-06
-1.50143e-08
3.82287e-06
-1.39137e-08
3.83577e-06
-1.28944e-08
3.84772e-06
-1.19502e-08
3.85881e-06
-1.10755e-08
3.86908e-06
-1.02654e-08
3.8786e-06
-9.51483e-09
3.88743e-06
-8.81952e-09
3.89561e-06
-8.17531e-09
3.9032e-06
-7.57844e-09
3.91023e-06
-7.02537e-09
3.91676e-06
-6.51286e-09
3.9228e-06
-6.03789e-09
3.92841e-06
-5.5977e-09
3.9336e-06
-5.1897e-09
3.93842e-06
-4.81152e-09
3.94289e-06
-4.46095e-09
3.94704e-06
-4.13595e-09
3.95088e-06
-3.83466e-09
3.95444e-06
-3.55532e-09
3.95775e-06
-3.29634e-09
3.96081e-06
-3.05622e-09
3.96365e-06
-2.83358e-09
3.96629e-06
-2.62714e-09
3.96873e-06
-2.43573e-09
3.971e-06
-2.25822e-09
3.9731e-06
-2.09361e-09
3.97505e-06
-1.94095e-09
3.97686e-06
-1.79935e-09
3.97854e-06
-1.668e-09
3.98009e-06
-1.54614e-09
3.98154e-06
-1.43307e-09
3.98288e-06
-1.32815e-09
3.98412e-06
-1.23079e-09
3.98527e-06
-1.14043e-09
3.98635e-06
-1.05658e-09
3.98734e-06
-9.78775e-10
3.98826e-06
-9.06594e-10
3.98912e-06
-8.39646e-10
3.98992e-06
-7.77569e-10
3.99066e-06
-7.20032e-10
3.99134e-06
-6.66721e-10
3.99198e-06
-6.1734e-10
3.99257e-06
-5.71615e-10
3.99312e-06
-5.29289e-10
3.99362e-06
-4.90122e-10
3.99409e-06
-4.53888e-10
3.99453e-06
-4.20374e-10
3.99493e-06
-3.89389e-10
3.99531e-06
-3.60751e-10
3.99565e-06
-3.34288e-10
3.99597e-06
-3.09833e-10
3.99626e-06
-2.87228e-10
3.99654e-06
-2.66327e-10
3.99679e-06
-2.46992e-10
3.99702e-06
-2.29091e-10
3.99723e-06
-2.12499e-10
3.99743e-06
-1.97098e-10
3.99761e-06
-1.82781e-10
3.99778e-06
-1.69448e-10
3.99794e-06
-1.57008e-10
3.99808e-06
-1.45381e-10
3.99822e-06
-1.34501e-10
3.99834e-06
-1.24308e-10
3.99845e-06
-1.14749e-10
3.99856e-06
-1.05776e-10
3.99865e-06
-9.73437e-11
3.99874e-06
-8.94101e-11
3.99882e-06
-8.19309e-11
3.9989e-06
-7.48635e-11
3.99896e-06
-6.81688e-11
3.99902e-06
-6.18103e-11
3.99908e-06
-5.57501e-11
3.99913e-06
-4.99443e-11
3.99917e-06
-4.43426e-11
3.99921e-06
-3.88913e-11
3.99924e-06
-3.35361e-11
3.99927e-06
-2.82213e-11
3.9993e-06
-2.28872e-11
3.99931e-06
-1.74688e-11
3.99933e-06
-1.18955e-11
3.99934e-06
-6.09363e-12
3.99934e-06
1.2425e-14
3.99934e-06
6.50162e-12
3.99933e-06
1.34598e-11
3.99932e-06
2.0984e-11
3.9993e-06
2.91853e-11
3.99926e-06
3.81921e-11
3.99922e-06
4.81538e-11
3.99917e-06
5.92487e-11
3.99911e-06
7.16927e-11
3.99903e-06
8.57502e-11
3.99894e-06
1.01741e-10
3.99883e-06
1.20044e-10
3.9987e-06
1.41091e-10
3.99855e-06
1.65367e-10
3.99837e-06
1.93401e-10
3.99815e-06
2.25776e-10
3.9979e-06
2.63146e-10
3.99761e-06
3.06278e-10
3.99727e-06
3.56118e-10
3.99686e-06
4.13856e-10
3.99639e-06
4.80989e-10
3.99584e-06
5.5935e-10
3.99519e-06
6.51121e-10
3.99444e-06
7.58853e-10
3.99356e-06
8.85533e-10
3.99253e-06
1.03473e-09
3.99132e-06
1.21079e-09
3.9899e-06
1.419e-09
3.98822e-06
1.6657e-09
3.98625e-06
1.9584e-09
3.98392e-06
2.30617e-09
3.98116e-06
2.7207e-09
3.9779e-06
3.21846e-09
3.97404e-06
3.82351e-09
3.96944e-06
4.57036e-09
3.96393e-06
5.50567e-09
3.95726e-06
6.68924e-09
3.9491e-06
8.1985e-09
3.93897e-06
1.01466e-08
3.92622e-06
1.27283e-08
3.90986e-06
1.631e-08
3.88822e-06
2.15996e-08
3.85815e-06
3.00877e-08
3.81234e-06
4.58491e-08
3.72645e-06
8.58858e-08
3.46999e-06
2.5663e-07
2.49906e-06
9.71347e-07
1.30475e-06
1.19453e-06
1.99989e-20
1.30448e-06
2e-20
-1.77371e-23
2e-20
-8.63972e-23
2e-20
-9.72846e-23
2e-20
-1.109e-22
2e-20
-1.33694e-22
2e-20
-1.75578e-22
2e-20
-2.75398e-22
2e-20
-2.15657e-21
2e-20
0
2e-20
0
2e-20
0
2e-20
0
2e-20
0
2e-20
0
2e-20
0
2e-20
0
2e-20
0
2e-20
0
2e-20
0
2e-20
0
2e-20
0
2e-20
0
2e-20
0
2e-20
0
2e-20
0
2e-20
0
2e-20
0
2e-20
0
2e-20
0
2e-20
0
2e-20
0
2e-20
0
2e-20
0
2e-20
0
2e-20
0
2e-20
0
2e-20
0
2e-20
0
2e-20
0
2e-20
0
2e-20
0
2e-20
0
2e-20
0
2e-20
0
2e-20
0
2e-20
0
2e-20
0
2e-20
0
2e-20
0
2e-20
0
2e-20
0
2e-20
0
2e-20
0
2e-20
0
2e-20
0
2e-20
0
2e-20
0
2e-20
0
2e-20
0
2e-20
0
2e-20
0
0
2e-20
0
2e-20
0
2e-20
0
2e-20
0
2e-20
0
2e-20
0
2e-20
0
2e-20
0
2e-20
0
2e-20
0
2e-20
0
2e-20
0
2e-20
0
2e-20
0
2e-20
0
4.26741e-07
-1.51369e-07
6.92456e-07
-7.6825e-07
1.18228e-06
-7.28942e-07
1.67845e-06
-6.99665e-07
2.16257e-06
-6.78374e-07
2.63246e-06
-6.57872e-07
3.08666e-06
-6.35824e-07
3.52373e-06
-6.11837e-07
3.94242e-06
-5.86145e-07
4.34184e-06
-5.59167e-07
4.72137e-06
-5.3136e-07
5.08075e-06
-5.0316e-07
5.41998e-06
-4.74956e-07
5.73928e-06
-4.4708e-07
6.0391e-06
-4.19805e-07
6.32002e-06
-3.93347e-07
6.58273e-06
-3.67869e-07
6.82803e-06
-3.43487e-07
7.05676e-06
-3.20279e-07
7.26978e-06
-2.98288e-07
7.46797e-06
-2.77531e-07
7.65222e-06
-2.58002e-07
7.82338e-06
-2.39678e-07
7.9823e-06
-2.22527e-07
8.12977e-06
-2.06504e-07
8.26657e-06
-1.9156e-07
8.39343e-06
-1.77642e-07
8.51104e-06
-1.64694e-07
8.62005e-06
-1.5266e-07
8.72108e-06
-1.41483e-07
8.81471e-06
-1.31111e-07
8.90145e-06
-1.21489e-07
8.98183e-06
-1.12567e-07
9.05629e-06
-1.04297e-07
9.12529e-06
-9.66335e-08
9.18921e-06
-8.95329e-08
9.24843e-06
-8.29548e-08
9.30331e-06
-7.68612e-08
9.35415e-06
-7.12167e-08
9.40127e-06
-6.59885e-08
9.44493e-06
-6.11459e-08
9.4854e-06
-5.66606e-08
9.5229e-06
-5.25061e-08
9.55765e-06
-4.86581e-08
9.58987e-06
-4.5094e-08
9.61973e-06
-4.17925e-08
9.6474e-06
-3.87344e-08
9.67306e-06
-3.59014e-08
9.69684e-06
-3.3277e-08
9.71888e-06
-3.08455e-08
9.73932e-06
-2.85928e-08
9.75827e-06
-2.65054e-08
9.77583e-06
-2.45712e-08
9.79211e-06
-2.27788e-08
9.80721e-06
-2.11177e-08
9.82121e-06
-1.95782e-08
9.83419e-06
-1.81512e-08
9.84623e-06
-1.68285e-08
9.85739e-06
-1.56024e-08
9.86773e-06
-1.44658e-08
9.87733e-06
-1.34121e-08
9.88623e-06
-1.24352e-08
9.89448e-06
-1.15295e-08
9.90213e-06
-1.06897e-08
9.90923e-06
-9.91102e-09
9.91581e-06
-9.18899e-09
9.92191e-06
-8.51945e-09
9.92757e-06
-7.89854e-09
9.93282e-06
-7.3227e-09
9.93769e-06
-6.78862e-09
9.94221e-06
-6.29324e-09
9.9464e-06
-5.83372e-09
9.95028e-06
-5.40744e-09
9.95389e-06
-5.01197e-09
9.95724e-06
-4.64509e-09
9.96034e-06
-4.3047e-09
9.96323e-06
-3.98892e-09
9.9659e-06
-3.69599e-09
9.96839e-06
-3.42428e-09
9.97069e-06
-3.1723e-09
9.97283e-06
-2.93867e-09
9.97482e-06
-2.7221e-09
9.97667e-06
-2.52141e-09
9.97838e-06
-2.33547e-09
9.97997e-06
-2.16324e-09
9.98144e-06
-2.00375e-09
9.98281e-06
-1.85608e-09
9.98408e-06
-1.71939e-09
9.98525e-06
-1.59288e-09
9.98634e-06
-1.47579e-09
9.98735e-06
-1.36744e-09
9.98828e-06
-1.26718e-09
9.98914e-06
-1.17439e-09
9.98994e-06
-1.08851e-09
9.99067e-06
-1.00899e-09
9.99135e-06
-9.35355e-10
9.99198e-06
-8.67127e-10
9.99256e-06
-8.03877e-10
9.99309e-06
-7.452e-10
9.99359e-06
-6.90717e-10
9.99404e-06
-6.4008e-10
9.99446e-06
-5.92964e-10
9.99485e-06
-5.49073e-10
9.99521e-06
-5.08141e-10
9.99555e-06
-4.69925e-10
9.99585e-06
-4.34202e-10
9.99614e-06
-4.00765e-10
9.9964e-06
-3.69423e-10
9.99664e-06
-3.39994e-10
9.99686e-06
-3.12307e-10
9.99706e-06
-2.86195e-10
9.99725e-06
-2.61504e-10
9.99741e-06
-2.38086e-10
9.99756e-06
-2.15802e-10
9.9977e-06
-1.94508e-10
9.99782e-06
-1.74055e-10
9.99793e-06
-1.54288e-10
9.99803e-06
-1.35045e-10
9.99811e-06
-1.16158e-10
9.99818e-06
-9.74514e-11
9.99824e-06
-7.87328e-11
9.99829e-06
-5.9792e-11
9.99832e-06
-4.03984e-11
9.99835e-06
-2.03015e-11
9.99836e-06
7.71298e-13
9.99835e-06
2.3119e-11
9.99833e-06
4.70748e-11
9.9983e-06
7.30137e-11
9.99824e-06
1.01359e-10
9.99817e-06
1.3259e-10
9.99807e-06
1.67254e-10
9.99794e-06
2.05984e-10
9.99778e-06
2.4952e-10
9.99759e-06
2.98738e-10
9.99736e-06
3.54672e-10
9.99709e-06
4.18538e-10
9.99676e-06
4.91744e-10
9.99638e-06
5.75916e-10
9.99593e-06
6.72914e-10
9.9954e-06
7.84874e-10
9.99478e-06
9.1427e-10
9.99405e-06
1.06401e-09
9.99319e-06
1.23757e-09
9.99219e-06
1.43914e-09
9.99101e-06
1.6738e-09
9.98964e-06
1.94761e-09
9.98804e-06
2.26783e-09
9.98616e-06
2.64308e-09
9.98397e-06
3.08366e-09
9.98141e-06
3.60203e-09
9.9784e-06
4.21338e-09
9.97486e-06
4.93631e-09
9.9707e-06
5.79347e-09
9.96579e-06
6.81243e-09
9.96e-06
8.02718e-09
9.95315e-06
9.48094e-09
9.94505e-06
1.1231e-08
9.93545e-06
1.33554e-08
9.92404e-06
1.59619e-08
9.91038e-06
1.91971e-08
9.89387e-06
2.32609e-08
9.87368e-06
2.84326e-08
9.84866e-06
3.51314e-08
9.81726e-06
4.40408e-08
9.77716e-06
5.63479e-08
9.72458e-06
7.42151e-08
9.65285e-06
1.01896e-07
9.5498e-06
1.48841e-07
9.39697e-06
2.38574e-07
9.22417e-06
4.29162e-07
9.401e-06
7.93821e-07
9.57133e-06
1.0236e-06
9.67376e-06
1.20236e-06
8.53157e-06
1.14206e-06
7.57185e-06
9.59793e-07
6.41396e-06
1.158e-06
5.18552e-06
1.2284e-06
3.90429e-06
1.28121e-06
2.55725e-06
1.34738e-06
1.2151e-06
1.34217e-06
1.99849e-20
1.21482e-06
2e-20
-7.57105e-23
2e-20
-8.28012e-23
2e-20
-9.29817e-23
2e-20
-1.07221e-22
2e-20
-1.31023e-22
2e-20
-1.77426e-22
2e-20
-2.81623e-22
2e-20
-2.53711e-22
2e-20
0
2e-20
0
2e-20
0
2e-20
0
2e-20
0
2e-20
0
2e-20
0
2e-20
0
2e-20
0
2e-20
0
2e-20
0
2e-20
0
2e-20
0
2e-20
0
2e-20
0
2e-20
0
2e-20
0
2e-20
0
2e-20
0
2e-20
0
2e-20
0
2e-20
0
2e-20
0
2e-20
0
2e-20
0
2e-20
0
2e-20
0
2e-20
0
2e-20
0
2e-20
0
2e-20
0
2e-20
0
2e-20
0
2e-20
0
2e-20
0
2e-20
0
2e-20
0
2e-20
0
2e-20
0
2e-20
0
2e-20
0
2e-20
0
2e-20
0
2e-20
0
2e-20
0
0
2e-20
0
2e-20
0
2e-20
0
2e-20
0
2e-20
0
2e-20
0
2e-20
0
2e-20
0
2e-20
0
2e-20
0
2e-20
0
2e-20
0
2e-20
0
2e-20
0
2e-20
0
2.77195e-07
-4.2858e-07
7.1904e-07
-1.21013e-06
1.20208e-06
-1.21202e-06
1.69285e-06
-1.19046e-06
2.17643e-06
-1.16199e-06
2.64737e-06
-1.12884e-06
3.10288e-06
-1.09136e-06
3.5411e-06
-1.05008e-06
3.96067e-06
-1.00574e-06
4.36064e-06
-9.59162e-07
4.74045e-06
-9.11182e-07
5.09983e-06
-8.62561e-07
5.43883e-06
-8.13974e-07
5.75773e-06
-7.65992e-07
6.05699e-06
-7.19081e-07
6.33725e-06
-6.73607e-07
6.59922e-06
-6.29847e-07
6.84373e-06
-5.87995e-07
7.07163e-06
-5.48179e-07
7.28381e-06
-5.10469e-07
7.48118e-06
-4.74888e-07
7.66461e-06
-4.41425e-07
7.83498e-06
-4.10039e-07
7.99313e-06
-3.80668e-07
8.13988e-06
-3.53236e-07
8.27598e-06
-3.27657e-07
8.40218e-06
-3.03837e-07
8.51918e-06
-2.81681e-07
8.62761e-06
-2.6109e-07
8.7281e-06
-2.4197e-07
8.82121e-06
-2.24226e-07
8.90749e-06
-2.07768e-07
8.98742e-06
-1.92508e-07
9.06148e-06
-1.78364e-07
9.13009e-06
-1.65256e-07
9.19366e-06
-1.53112e-07
9.25255e-06
-1.41862e-07
9.30712e-06
-1.3144e-07
9.35769e-06
-1.21787e-07
9.40454e-06
-1.12846e-07
9.44797e-06
-1.04564e-07
9.48821e-06
-9.68937e-08
9.5255e-06
-8.97893e-08
9.56006e-06
-8.32091e-08
9.5921e-06
-7.71143e-08
9.62179e-06
-7.14688e-08
9.64932e-06
-6.62393e-08
9.67483e-06
-6.13949e-08
9.69848e-06
-5.6907e-08
9.72041e-06
-5.27491e-08
9.74073e-06
-4.88968e-08
9.75957e-06
-4.53272e-08
9.77704e-06
-4.20196e-08
9.79324e-06
-3.89543e-08
9.80825e-06
-3.61136e-08
9.82218e-06
-3.34808e-08
9.83509e-06
-3.10405e-08
9.84706e-06
-2.87785e-08
9.85815e-06
-2.66817e-08
9.86845e-06
-2.47379e-08
9.87799e-06
-2.29359e-08
9.88684e-06
-2.12652e-08
9.89505e-06
-1.97162e-08
9.90266e-06
-1.82801e-08
9.90972e-06
-1.69484e-08
9.91626e-06
-1.57135e-08
9.92233e-06
-1.45684e-08
9.92796e-06
-1.35064e-08
9.93318e-06
-1.25215e-08
9.93802e-06
-1.16079e-08
9.94252e-06
-1.07605e-08
9.94668e-06
-9.97445e-09
9.95055e-06
-9.24521e-09
9.95414e-06
-8.56867e-09
9.95747e-06
-7.94102e-09
9.96056e-06
-7.35874e-09
9.96342e-06
-6.81857e-09
9.96609e-06
-6.31753e-09
9.96856e-06
-5.85286e-09
9.97085e-06
-5.42199e-09
9.97298e-06
-5.02255e-09
9.97496e-06
-4.65236e-09
9.97679e-06
-4.30935e-09
9.9785e-06
-3.99162e-09
9.98008e-06
-3.69737e-09
9.98154e-06
-3.42493e-09
9.9829e-06
-3.17274e-09
9.98416e-06
-2.93933e-09
9.98533e-06
-2.72333e-09
9.98641e-06
-2.52345e-09
9.98741e-06
-2.33849e-09
9.98834e-06
-2.16733e-09
9.9892e-06
-2.0089e-09
9.98999e-06
-1.86222e-09
9.99072e-06
-1.72637e-09
9.9914e-06
-1.60051e-09
9.99202e-06
-1.48383e-09
9.9926e-06
-1.37561e-09
9.99313e-06
-1.27515e-09
9.99362e-06
-1.18183e-09
9.99407e-06
-1.09506e-09
9.99449e-06
-1.01431e-09
9.99488e-06
-9.39095e-10
9.99524e-06
-8.68964e-10
9.99557e-06
-8.03513e-10
9.99588e-06
-7.42361e-10
9.99616e-06
-6.85153e-10
9.99642e-06
-6.31556e-10
9.99666e-06
-5.8125e-10
9.99688e-06
-5.33935e-10
9.99708e-06
-4.89321e-10
9.99726e-06
-4.47137e-10
9.99743e-06
-4.07124e-10
9.99758e-06
-3.69028e-10
9.99772e-06
-3.32596e-10
9.99784e-06
-2.97567e-10
9.99795e-06
-2.6368e-10
9.99804e-06
-2.30667e-10
9.99812e-06
-1.98252e-10
9.99819e-06
-1.66143e-10
9.99825e-06
-1.34024e-10
9.9983e-06
-1.0155e-10
9.99834e-06
-6.83433e-11
9.99836e-06
-3.39892e-11
9.99837e-06
1.97018e-12
9.99837e-06
4.00462e-11
9.99835e-06
8.0815e-11
9.99832e-06
1.24928e-10
9.99826e-06
1.7312e-10
9.99819e-06
2.26226e-10
9.99809e-06
2.85194e-10
9.99797e-06
3.51113e-10
9.99781e-06
4.25245e-10
9.99763e-06
5.09062e-10
9.9974e-06
6.04285e-10
9.99714e-06
7.12915e-10
9.99682e-06
8.3728e-10
9.99645e-06
9.80079e-10
9.99601e-06
1.14444e-09
9.99549e-06
1.33402e-09
9.99488e-06
1.55307e-09
9.99417e-06
1.80665e-09
9.99333e-06
2.10073e-09
9.99235e-06
2.44249e-09
9.9912e-06
2.84044e-09
9.98986e-06
3.30473e-09
9.98829e-06
3.84741e-09
9.98646e-06
4.48286e-09
9.98432e-06
5.22832e-09
9.98182e-06
6.1047e-09
9.97889e-06
7.13752e-09
9.97544e-06
8.35806e-09
9.97139e-06
9.80461e-09
9.96661e-06
1.15241e-08
9.96098e-06
1.35748e-08
9.95433e-06
1.60301e-08
9.94648e-06
1.8985e-08
9.93721e-06
2.25657e-08
9.92623e-06
2.6942e-08
9.91313e-06
3.23441e-08
9.89737e-06
3.90873e-08
9.87821e-06
4.7616e-08
9.85468e-06
5.85889e-08
9.82558e-06
7.30398e-08
9.78924e-06
9.26548e-08
9.7433e-06
1.20251e-07
9.68459e-06
1.60718e-07
9.61048e-06
2.22982e-07
9.52586e-06
3.23266e-07
9.47078e-06
4.84759e-07
9.5564e-06
7.09016e-07
9.69222e-06
8.88081e-07
9.88442e-06
1.01003e-06
1.00013e-05
1.02536e-06
9.96261e-06
9.98607e-07
1.00387e-05
1.08178e-06
1.01209e-05
1.14591e-06
1.02045e-05
1.19743e-06
1.03092e-05
1.24195e-06
1.03924e-05
1.25867e-06
1.03381e-05
1.26946e-06
9.05714e-06
1.28084e-06
7.87288e-06
1.18426e-06
6.58966e-06
1.28324e-06
5.26715e-06
1.32247e-06
3.91045e-06
1.35669e-06
2.46306e-06
1.44752e-06
3.7495e-07
2.08809e-06
6.36016e-20
3.74891e-07
2e-20
-1.21324e-22
2e-20
-8.00964e-23
2e-20
-8.9355e-23
2e-20
-1.0385e-22
2e-20
-1.28211e-22
2e-20
-1.76622e-22
2e-20
-2.95886e-22
2e-20
-1.59164e-22
2e-20
0
2e-20
0
2e-20
0
2e-20
0
2e-20
0
2e-20
0
2e-20
0
2e-20
0
2e-20
0
2e-20
0
2e-20
0
2e-20
0
2e-20
0
2e-20
0
2e-20
0
2e-20
0
2e-20
0
2e-20
0
2e-20
0
2e-20
0
2e-20
0
2e-20
0
2e-20
0
2e-20
0
2e-20
0
2e-20
0
2e-20
0
2e-20
0
2e-20
0
2e-20
0
2e-20
0
2e-20
0
2e-20
0
2e-20
0
2e-20
0
2e-20
0
2e-20
0
0
2e-20
0
2e-20
0
2e-20
0
2e-20
0
2e-20
0
2e-20
0
2e-20
0
2e-20
0
2e-20
0
2e-20
0
2e-20
0
2e-20
0
2e-20
0
2e-20
0
2e-20
0
2.11045e-07
-6.39639e-07
7.17761e-07
-1.71687e-06
1.21666e-06
-1.71094e-06
1.7121e-06
-1.68592e-06
2.19886e-06
-1.64877e-06
2.67272e-06
-1.60272e-06
3.1308e-06
-1.54947e-06
3.57109e-06
-1.49039e-06
3.99217e-06
-1.42683e-06
4.39309e-06
-1.3601e-06
4.77333e-06
-1.29143e-06
5.13269e-06
-1.22194e-06
5.47128e-06
-1.15258e-06
5.78946e-06
-1.08418e-06
6.08775e-06
-1.01738e-06
6.36684e-06
-9.52709e-07
6.62753e-06
-8.90534e-07
6.87066e-06
-8.31127e-07
7.09713e-06
-7.74656e-07
7.30788e-06
-7.2121e-07
7.50381e-06
-6.70815e-07
7.68584e-06
-6.23445e-07
7.85484e-06
-5.79038e-07
8.01168e-06
-5.37499e-07
8.15717e-06
-4.98717e-07
8.29209e-06
-4.62565e-07
8.41717e-06
-4.28908e-07
8.5331e-06
-3.97609e-07
8.64054e-06
-3.68528e-07
8.7401e-06
-3.41527e-07
8.83234e-06
-3.16473e-07
8.91781e-06
-2.93237e-07
8.99699e-06
-2.71695e-07
9.07034e-06
-2.51729e-07
9.1383e-06
-2.33228e-07
9.20127e-06
-2.16086e-07
9.2596e-06
-2.00208e-07
9.31365e-06
-1.85499e-07
9.36374e-06
-1.71875e-07
9.41015e-06
-1.59256e-07
9.45315e-06
-1.47569e-07
9.49301e-06
-1.36745e-07
9.52995e-06
-1.26719e-07
9.56419e-06
-1.17433e-07
9.59592e-06
-1.08832e-07
9.62533e-06
-1.00865e-07
9.65259e-06
-9.34851e-08
9.67787e-06
-8.66486e-08
9.70129e-06
-8.03151e-08
9.72301e-06
-7.44473e-08
9.74315e-06
-6.90107e-08
9.76181e-06
-6.39731e-08
9.77912e-06
-5.9305e-08
9.79516e-06
-5.49791e-08
9.81003e-06
-5.097e-08
9.82383e-06
-4.72542e-08
9.83662e-06
-4.38101e-08
9.84847e-06
-4.06177e-08
9.85947e-06
-3.76584e-08
9.86966e-06
-3.4915e-08
9.87912e-06
-3.23717e-08
9.88789e-06
-3.00138e-08
9.89602e-06
-2.78277e-08
9.90356e-06
-2.58007e-08
9.91055e-06
-2.39212e-08
9.91704e-06
-2.21784e-08
9.92305e-06
-2.05622e-08
9.92863e-06
-1.90633e-08
9.9338e-06
-1.76732e-08
9.9386e-06
-1.63838e-08
9.94305e-06
-1.51877e-08
9.94718e-06
-1.40783e-08
9.95101e-06
-1.3049e-08
9.95456e-06
-1.20942e-08
9.95786e-06
-1.12084e-08
9.96092e-06
-1.03866e-08
9.96376e-06
-9.62432e-09
9.9664e-06
-8.91728e-09
9.96885e-06
-8.26158e-09
9.97112e-06
-7.6536e-09
9.97323e-06
-7.09001e-09
9.97519e-06
-6.56767e-09
9.97701e-06
-6.0837e-09
9.97869e-06
-5.63537e-09
9.98026e-06
-5.22017e-09
9.98171e-06
-4.83574e-09
9.98306e-06
-4.47985e-09
9.98431e-06
-4.15044e-09
9.98546e-06
-3.84556e-09
9.98654e-06
-3.56342e-09
9.98753e-06
-3.3023e-09
9.98845e-06
-3.06061e-09
9.9893e-06
-2.83686e-09
9.99008e-06
-2.62968e-09
9.99081e-06
-2.43776e-09
9.99148e-06
-2.2599e-09
9.99209e-06
-2.095e-09
9.99266e-06
-1.94201e-09
9.99319e-06
-1.79999e-09
9.99368e-06
-1.66804e-09
9.99413e-06
-1.54535e-09
9.99454e-06
-1.43118e-09
9.99493e-06
-1.32486e-09
9.99528e-06
-1.22576e-09
9.99561e-06
-1.1333e-09
9.99591e-06
-1.04695e-09
9.99619e-06
-9.66193e-10
9.99645e-06
-8.90559e-10
9.99669e-06
-8.19593e-10
9.99691e-06
-7.52866e-10
9.99711e-06
-6.8997e-10
9.99729e-06
-6.3052e-10
9.99745e-06
-5.74144e-10
9.9976e-06
-5.20478e-10
9.99774e-06
-4.69161e-10
9.99786e-06
-4.19829e-10
9.99797e-06
-3.72118e-10
9.99806e-06
-3.25656e-10
9.99815e-06
-2.8006e-10
9.99822e-06
-2.34922e-10
9.99828e-06
-1.89801e-10
9.99832e-06
-1.44218e-10
9.99836e-06
-9.76476e-11
9.99839e-06
-4.95107e-11
9.9984e-06
8.34738e-13
9.9984e-06
5.41088e-11
9.99838e-06
1.11123e-10
9.99835e-06
1.72793e-10
9.9983e-06
2.40152e-10
9.99823e-06
3.14369e-10
9.99814e-06
3.9677e-10
9.99802e-06
4.88878e-10
9.99787e-06
5.92452e-10
9.99769e-06
7.09536e-10
9.99748e-06
8.42507e-10
9.99722e-06
9.94134e-10
9.99692e-06
1.16764e-09
9.99656e-06
1.36677e-09
9.99614e-06
1.59589e-09
9.99564e-06
1.8601e-09
9.99505e-06
2.16539e-09
9.99437e-06
2.51883e-09
9.99356e-06
2.92878e-09
9.99262e-06
3.40517e-09
9.99151e-06
3.9598e-09
9.99022e-06
4.60664e-09
9.98872e-06
5.36232e-09
9.98697e-06
6.24663e-09
9.98492e-06
7.28334e-09
9.98252e-06
8.50124e-09
9.97971e-06
9.93545e-09
9.97642e-06
1.16289e-08
9.97255e-06
1.36341e-08
9.968e-06
1.60155e-08
9.96264e-06
1.88526e-08
9.95633e-06
2.22448e-08
9.9489e-06
2.6319e-08
9.94017e-06
3.12409e-08
9.92988e-06
3.72304e-08
9.91769e-06
4.45831e-08
9.90314e-06
5.37003e-08
9.88563e-06
6.51368e-08
9.86446e-06
7.96892e-08
9.83885e-06
9.85525e-08
9.8079e-06
1.23563e-07
9.77067e-06
1.5754e-07
9.7267e-06
2.0479e-07
9.6783e-06
2.71796e-07
9.63508e-06
3.67047e-07
9.62245e-06
4.9737e-07
9.6775e-06
6.5333e-07
9.7747e-06
7.90779e-07
9.89479e-06
8.90036e-07
9.98317e-06
9.37188e-07