/*--------------------------------*- C++ -*----------------------------------*\
| =========                 |                                                 |
| \\      /  F ield         | foam-extend: Open Source CFD                    |
|  \\    /   O peration     | Version:     4.1                                |
|   \\  /    A nd           | Web:         http://www.foam-extend.org         |
|    \\/     M anipulation  |                                                 |
\*---------------------------------------------------------------------------*/
FoamFile
{
    version     2.0;
    format      ascii;
    class       volVectorField;
    location    "0";
    object      U;
}
// * * * * * * * * * * * * * * * * * * * * * * * * * * * * * * * * * * * * * //

dimensions      [0 1 -1 0 0 0 0];

internalField   nonuniform List<vector> 
15000
(
(0 0 0)
(0 0 0)
(0 0 0)
(0 0 0)
(0 0 0)
(0 0 0)
(0 0 0)
(0 0 0)
(0 0 0)
(0 0 0)
(0 0 0)
(0 0 0)
(0 0 0)
(0 0 0)
(0 0 0)
(0 0 0)
(0 0 0)
(0 0 0)
(0 0 0)
(0 0 0)
(0 0 0)
(0 0 0)
(0 0 0)
(0 0 0)
(0 0 0)
(0 0 0)
(0 0 0)
(0 0 0)
(0 0 0)
(0 0 0)
(0 0 0)
(0 0 0)
(0 0 0)
(0 0 0)
(0 0 0)
(0 0 0)
(0 0 0)
(0 0 0)
(0 0 0)
(0 0 0)
(0 0 0)
(0 0 0)
(0 0 0)
(0 0 0)
(0 0 0)
(0 0 0)
(0 0 0)
(0 0 0)
(0 0 0)
(0 0 0)
(0 0 0)
(0 0 0)
(0 0 0)
(0 0 0)
(0 0 0)
(0 0 0)
(0 0 0)
(0 0 0)
(0 0 0)
(0 0 0)
(0 0 0)
(0 0 0)
(0 0 0)
(0 0 0)
(0 0 0)
(0 0 0)
(0 0 0)
(0 0 0)
(0 0 0)
(0 0 0)
(0 0 0)
(0 0 0)
(0 0 0)
(0 0 0)
(0 0 0)
(0 0 0)
(0 0 0)
(0 0 0)
(0 0 0)
(0 0 0)
(0 0 0)
(0 0 0)
(0 0 0)
(0 0 0)
(0 0 0)
(0 0 0)
(0 0 0)
(0 0 0)
(0 0 0)
(0 0 0)
(0 0 0)
(0 0 0)
(0 0 0)
(0 0 0)
(0 0 0)
(0 0 0)
(0 0 0)
(0 0 0)
(0 0 0)
(0 0 0)
(0 0 0)
(0 0 0)
(0 0 0)
(0 0 0)
(0 0 0)
(0 0 0)
(0 0 0)
(0 0 0)
(0 0 0)
(0 0 0)
(0 0 0)
(0 0 0)
(0 0 0)
(0 0 0)
(0 0 0)
(0 0 0)
(0 0 0)
(0 0 0)
(0 0 0)
(0 0 0)
(0 0 0)
(0 0 0)
(0 0 0)
(0 0 0)
(0 0 0)
(0 0 0)
(0 0 0)
(0 0 0)
(0 0 0)
(0 0 0)
(0 0 0)
(0 0 0)
(0 0 0)
(0 0 0)
(0 0 0)
(0 0 0)
(0 0 0)
(0 0 0)
(0 0 0)
(0 0 0)
(0 0 0)
(0 0 0)
(0 0 0)
(0 0 0)
(0 0 0)
(0 0 0)
(0 0 0)
(0 0 0)
(0 0 0)
(0 0 0)
(0 0 0)
(0 0 0)
(0 0 0)
(0 0 0)
(0 0 0)
(0 0 0)
(0 0 0)
(0 0 0)
(0 0 0)
(0 0 0)
(0 0 0)
(0 0 0)
(0 0 0)
(0 0 0)
(0 0 0)
(0 0 0)
(0 0 0)
(0 0 0)
(0 0 0)
(0 0 0)
(0 0 0)
(0 0 0)
(0 0 0)
(0 0 0)
(0 0 0)
(0 0 0)
(0 0 0)
(0 0 0)
(0 0 0)
(0 0 0)
(0 0 0)
(0 0 0)
(0 0 0)
(0 0 0)
(0 0 0)
(0 0 0)
(0 0 0)
(0 0 0)
(0 0 0)
(0 0 0)
(0 0 0)
(0 0 0)
(0 0 0)
(0 0 0)
(0 0 0)
(0 0 0)
(0 0 0)
(0 0 0)
(0 0 0)
(0 0 0)
(0 0 0)
(0 0 0)
(0 0 0)
(0 0 0)
(0 0 0)
(0 0 0)
(0 0 0)
(0 0 0)
(0 0 0)
(0 0 0)
(0 0 0)
(0 0 0)
(0 0 0)
(0 0 0)
(0 0 0)
(0 0 0)
(0 0 0)
(0 0 0)
(0 0 0)
(0 0 0)
(0 0 0)
(0 0 0)
(0 0 0)
(0 0 0)
(0 0 0)
(0 0 0)
(0 0 0)
(0 0 0)
(0 0 0)
(0 0 0)
(0 0 0)
(0 0 0)
(0 0 0)
(0 0 0)
(0 0 0)
(0 0 0)
(0 0 0)
(0 0 0)
(0 0 0)
(0 0 0)
(0 0 0)
(0 0 0)
(0 0 0)
(0 0 0)
(0 0 0)
(0 0 0)
(0 0 0)
(0 0 0)
(0 0 0)
(0 0 0)
(0 0 0)
(0 0 0)
(0 0 0)
(0 0 0)
(0 0 0)
(0 0 0)
(0 0 0)
(0 0 0)
(0 0 0)
(0 0 0)
(0 0 0)
(0 0 0)
(0 0 0)
(0 0 0)
(0 0 0)
(0 0 0)
(0 0 0)
(0 0 0)
(0 0 0)
(0 0 0)
(0 0 0)
(0 0 0)
(0 0 0)
(0 0 0)
(0 0 0)
(0 0 0)
(0 0 0)
(0 0 0)
(0 0 0)
(0 0 0)
(0 0 0)
(0 0 0)
(0 0 0)
(0 0 0)
(0 0 0)
(0 0 0)
(0 0 0)
(0 0 0)
(0 0 0)
(0 0 0)
(0 0 0)
(0 0 0)
(0 0 0)
(0 0 0)
(0 0 0)
(0 0 0)
(0 0 0)
(0 0 0)
(0 0 0)
(0 0 0)
(0 0 0)
(0 0 0)
(0 0 0)
(0 0 0)
(0 0 0)
(0 0 0)
(0 0 0)
(0 0 0)
(0 0 0)
(0 0 0)
(0 0 0)
(0 0 0)
(0 0 0)
(0 0 0)
(0 0 0)
(0 0 0)
(0 0 0)
(0 0 0)
(0 0 0)
(0 0 0)
(0 0 0)
(0 0 0)
(0 0 0)
(0 0 0)
(0 0 0)
(0 0 0)
(0 0 0)
(0 0 0)
(0 0 0)
(0 0 0)
(0 0 0)
(0 0 0)
(0 0 0)
(0 0 0)
(0 0 0)
(0 0 0)
(0 0 0)
(0 0 0)
(0 0 0)
(0 0 0)
(0 0 0)
(0 0 0)
(0 0 0)
(0 0 0)
(0 0 0)
(0 0 0)
(0 0 0)
(0 0 0)
(0 0 0)
(0 0 0)
(0 0 0)
(0 0 0)
(0 0 0)
(0 0 0)
(0 0 0)
(0 0 0)
(0 0 0)
(0 0 0)
(0 0 0)
(0 0 0)
(0 0 0)
(0 0 0)
(0 0 0)
(0 0 0)
(0 0 0)
(0 0 0)
(0 0 0)
(0 0 0)
(0 0 0)
(0 0 0)
(0 0 0)
(0 0 0)
(0 0 0)
(0 0 0)
(0 0 0)
(0 0 0)
(0 0 0)
(0 0 0)
(0 0 0)
(0 0 0)
(0 0 0)
(0 0 0)
(0 0 0)
(0 0 0)
(0 0 0)
(0 0 0)
(0 0 0)
(0 0 0)
(0 0 0)
(0 0 0)
(0 0 0)
(0 0 0)
(0 0 0)
(0 0 0)
(0 0 0)
(0 0 0)
(0 0 0)
(0 0 0)
(0 0 0)
(0 0 0)
(0 0 0)
(0 0 0)
(0 0 0)
(0 0 0)
(0 0 0)
(0 0 0)
(0 0 0)
(0 0 0)
(0 0 0)
(0 0 0)
(0 0 0)
(0 0 0)
(0 0 0)
(0 0 0)
(0 0 0)
(0 0 0)
(0 0 0)
(0 0 0)
(0 0 0)
(0 0 0)
(0 0 0)
(0 0 0)
(0 0 0)
(0 0 0)
(0 0 0)
(0 0 0)
(0 0 0)
(0 0 0)
(0 0 0)
(0 0 0)
(0 0 0)
(0 0 0)
(0 0 0)
(0 0 0)
(0 0 0)
(0 0 0)
(0 0 0)
(0 0 0)
(0 0 0)
(0 0 0)
(0 0 0)
(0 0 0)
(0 0 0)
(0 0 0)
(0 0 0)
(0 0 0)
(0 0 0)
(0 0 0)
(0 0 0)
(0 0 0)
(0 0 0)
(0 0 0)
(0 0 0)
(0 0 0)
(0 0 0)
(0 0 0)
(0 0 0)
(0 0 0)
(0 0 0)
(0 0 0)
(0 0 0)
(0 0 0)
(0 0 0)
(0 0 0)
(0 0 0)
(0 0 0)
(0 0 0)
(0 0 0)
(0 0 0)
(0 0 0)
(0 0 0)
(0 0 0)
(0 0 0)
(0 0 0)
(0 0 0)
(0 0 0)
(0 0 0)
(0 0 0)
(0 0 0)
(0 0 0)
(0 0 0)
(0 0 0)
(0 0 0)
(0 0 0)
(0 0 0)
(0 0 0)
(0 0 0)
(0 0 0)
(0 0 0)
(0 0 0)
(0 0 0)
(0 0 0)
(0 0 0)
(0 0 0)
(0 0 0)
(0 0 0)
(0 0 0)
(0 0 0)
(0 0 0)
(0 0 0)
(0 0 0)
(0 0 0)
(0 0 0)
(0 0 0)
(0 0 0)
(0 0 0)
(0 0 0)
(0 0 0)
(0 0 0)
(0 0 0)
(0 0 0)
(0 0 0)
(0 0 0)
(0 0 0)
(0 0 0)
(0 0 0)
(0 0 0)
(0 0 0)
(0 0 0)
(0 0 0)
(0 0 0)
(0 0 0)
(0 0 0)
(0 0 0)
(0 0 0)
(0 0 0)
(0 0 0)
(0 0 0)
(0 0 0)
(0 0 0)
(0 0 0)
(0 0 0)
(0 0 0)
(0 0 0)
(0 0 0)
(0 0 0)
(0 0 0)
(0 0 0)
(0 0 0)
(0 0 0)
(0 0 0)
(0 0 0)
(0 0 0)
(0 0 0)
(0 0 0)
(0 0 0)
(0 0 0)
(0 0 0)
(0 0 0)
(0 0 0)
(0 0 0)
(0 0 0)
(0 0 0)
(0 0 0)
(0 0 0)
(0 0 0)
(0 0 0)
(0 0 0)
(0 0 0)
(0 0 0)
(0 0 0)
(0 0 0)
(0 0 0)
(0 0 0)
(0 0 0)
(0 0 0)
(0 0 0)
(0 0 0)
(0 0 0)
(0 0 0)
(0 0 0)
(0 0 0)
(0 0 0)
(0 0 0)
(0 0 0)
(0 0 0)
(0 0 0)
(0 0 0)
(0 0 0)
(0 0 0)
(0 0 0)
(0 0 0)
(0 0 0)
(0 0 0)
(0 0 0)
(0 0 0)
(0 0 0)
(0 0 0)
(0 0 0)
(0 0 0)
(0 0 0)
(0 0 0)
(0 0 0)
(0 0 0)
(0 0 0)
(0 0 0)
(0 0 0)
(0 0 0)
(0 0 0)
(0 0 0)
(0 0 0)
(0 0 0)
(0 0 0)
(0 0 0)
(0 0 0)
(0 0 0)
(0 0 0)
(0 0 0)
(0 0 0)
(0 0 0)
(0 0 0)
(0 0 0)
(0 0 0)
(0 0 0)
(0 0 0)
(0 0 0)
(0 0 0)
(0 0 0)
(0 0 0)
(0 0 0)
(0 0 0)
(0 0 0)
(0 0 0)
(0 0 0)
(0 0 0)
(0 0 0)
(0 0 0)
(0 0 0)
(0 0 0)
(0 0 0)
(0 0 0)
(0 0 0)
(0 0 0)
(0 0 0)
(0 0 0)
(0 0 0)
(0 0 0)
(0 0 0)
(0 0 0)
(0 0 0)
(0 0 0)
(0 0 0)
(0 0 0)
(0 0 0)
(0 0 0)
(0 0 0)
(0 0 0)
(0 0 0)
(0 0 0)
(0 0 0)
(0 0 0)
(0 0 0)
(0 0 0)
(0 0 0)
(0 0 0)
(0 0 0)
(0 0 0)
(0 0 0)
(0 0 0)
(0 0 0)
(0 0 0)
(0 0 0)
(0 0 0)
(0 0 0)
(0 0 0)
(0 0 0)
(0 0 0)
(0 0 0)
(0 0 0)
(0 0 0)
(0 0 0)
(0 0 0)
(0 0 0)
(0 0 0)
(0 0 0)
(0 0 0)
(0 0 0)
(0 0 0)
(0 0 0)
(0 0 0)
(0 0 0)
(0 0 0)
(0 0 0)
(0 0 0)
(0 0 0)
(0 0 0)
(0 0 0)
(0 0 0)
(0 0 0)
(0 0 0)
(0 0 0)
(0 0 0)
(0 0 0)
(0 0 0)
(0 0 0)
(0 0 0)
(0 0 0)
(0 0 0)
(0 0 0)
(0 0 0)
(0 0 0)
(0 0 0)
(0 0 0)
(0 0 0)
(0 0 0)
(0 0 0)
(0 0 0)
(0 0 0)
(0 0 0)
(0 0 0)
(0 0 0)
(0 0 0)
(0 0 0)
(0 0 0)
(0 0 0)
(0 0 0)
(0 0 0)
(0 0 0)
(0 0 0)
(0 0 0)
(0 0 0)
(0 0 0)
(0 0 0)
(0 0 0)
(0 0 0)
(0 0 0)
(0 0 0)
(0 0 0)
(0 0 0)
(0 0 0)
(0 0 0)
(0 0 0)
(0 0 0)
(0 0 0)
(0 0 0)
(0 0 0)
(0 0 0)
(0 0 0)
(0 0 0)
(0 0 0)
(0 0 0)
(0 0 0)
(0 0 0)
(0 0 0)
(0 0 0)
(0 0 0)
(0 0 0)
(0 0 0)
(0 0 0)
(0 0 0)
(0 0 0)
(0 0 0)
(0 0 0)
(0 0 0)
(0 0 0)
(0 0 0)
(0 0 0)
(0 0 0)
(0 0 0)
(0 0 0)
(0 0 0)
(0 0 0)
(0 0 0)
(0 0 0)
(0 0 0)
(0 0 0)
(0 0 0)
(0 0 0)
(0 0 0)
(0 0 0)
(0 0 0)
(0 0 0)
(0 0 0)
(0 0 0)
(0 0 0)
(0 0 0)
(0 0 0)
(0 0 0)
(0 0 0)
(0 0 0)
(0 0 0)
(0 0 0)
(0 0 0)
(0 0 0)
(0 0 0)
(0 0 0)
(0 0 0)
(0 0 0)
(0 0 0)
(0 0 0)
(0 0 0)
(0 0 0)
(0 0 0)
(0 0 0)
(0 0 0)
(0 0 0)
(0 0 0)
(0 0 0)
(0 0 0)
(0 0 0)
(0 0 0)
(0 0 0)
(0 0 0)
(0 0 0)
(0 0 0)
(0 0 0)
(0 0 0)
(0 0 0)
(0 0 0)
(0 0 0)
(0 0 0)
(0 0 0)
(0 0 0)
(0 0 0)
(0 0 0)
(0 0 0)
(0 0 0)
(0 0 0)
(0 0 0)
(0 0 0)
(0 0 0)
(0 0 0)
(0 0 0)
(0 0 0)
(0 0 0)
(0 0 0)
(0 0 0)
(0 0 0)
(0 0 0)
(0 0 0)
(0 0 0)
(0 0 0)
(0 0 0)
(0 0 0)
(0 0 0)
(0 0 0)
(0 0 0)
(0 0 0)
(0 0 0)
(0 0 0)
(0 0 0)
(0 0 0)
(0 0 0)
(0 0 0)
(0 0 0)
(0 0 0)
(0 0 0)
(0 0 0)
(0 0 0)
(0 0 0)
(0 0 0)
(0 0 0)
(0 0 0)
(0 0 0)
(0 0 0)
(0 0 0)
(0 0 0)
(0 0 0)
(0 0 0)
(0 0 0)
(0 0 0)
(0 0 0)
(0 0 0)
(0 0 0)
(0 0 0)
(0 0 0)
(0 0 0)
(0 0 0)
(0 0 0)
(0 0 0)
(0 0 0)
(0 0 0)
(0 0 0)
(0 0 0)
(0 0 0)
(0 0 0)
(0 0 0)
(0 0 0)
(0 0 0)
(0 0 0)
(0 0 0)
(0 0 0)
(0 0 0)
(0 0 0)
(0 0 0)
(0 0 0)
(0 0 0)
(0 0 0)
(0 0 0)
(0 0 0)
(0 0 0)
(0 0 0)
(0 0 0)
(0 0 0)
(0 0 0)
(0 0 0)
(0 0 0)
(0 0 0)
(0 0 0)
(0 0 0)
(0 0 0)
(0 0 0)
(0 0 0)
(0 0 0)
(0 0 0)
(0 0 0)
(0 0 0)
(0 0 0)
(0 0 0)
(0 0 0)
(0 0 0)
(0 0 0)
(0 0 0)
(0 0 0)
(0 0 0)
(0 0 0)
(0 0 0)
(0 0 0)
(0 0 0)
(0 0 0)
(0 0 0)
(0 0 0)
(0 0 0)
(0 0 0)
(0 0 0)
(0 0 0)
(0 0 0)
(0 0 0)
(0 0 0)
(0 0 0)
(0 0 0)
(0 0 0)
(0 0 0)
(0 0 0)
(0 0 0)
(0 0 0)
(0 0 0)
(0 0 0)
(0 0 0)
(0 0 0)
(0 0 0)
(0 0 0)
(0 0 0)
(0 0 0)
(0 0 0)
(0 0 0)
(0 0 0)
(0 0 0)
(0 0 0)
(0 0 0)
(0 0 0)
(0 0 0)
(0 0 0)
(0 0 0)
(0 0 0)
(0 0 0)
(0 0 0)
(0 0 0)
(0 0 0)
(0 0 0)
(0 0 0)
(0 0 0)
(0 0 0)
(0 0 0)
(0 0 0)
(0 0 0)
(0 0 0)
(0 0 0)
(0 0 0)
(0 0 0)
(0 0 0)
(0 0 0)
(0 0 0)
(0 0 0)
(0 0 0)
(0 0 0)
(0 0 0)
(0 0 0)
(0 0 0)
(0 0 0)
(0 0 0)
(0 0 0)
(0 0 0)
(0 0 0)
(0 0 0)
(0 0 0)
(0 0 0)
(0 0 0)
(0 0 0)
(0 0 0)
(0 0 0)
(0 0 0)
(0 0 0)
(0 0 0)
(0 0 0)
(0 0 0)
(0 0 0)
(0 0 0)
(0 0 0)
(0 0 0)
(0 0 0)
(0 0 0)
(0 0 0)
(0 0 0)
(0 0 0)
(0 0 0)
(0 0 0)
(0 0 0)
(0 0 0)
(0 0 0)
(0 0 0)
(0 0 0)
(0 0 0)
(0 0 0)
(0 0 0)
(4.03061 -0.653679 0)
(-0.0301812 -0.0688743 0)
(0.433294 -0.0327691 0)
(0.709874 -0.0278881 0)
(0.958418 -0.0266207 0)
(1.19726 -0.0257612 0)
(1.42822 -0.0248901 0)
(1.65092 -0.0239512 0)
(1.86476 -0.0229471 0)
(2.06922 -0.021893 0)
(2.26391 -0.0208063 0)
(2.44863 -0.0197041 0)
(2.62329 -0.0186013 0)
(2.78795 -0.0175111 0)
(2.94278 -0.0164442 0)
(3.08802 -0.0154089 0)
(3.224 -0.0144118 0)
(3.35108 -0.0134574 0)
(3.46967 -0.0125488 0)
(3.58019 -0.0116877 0)
(3.68307 -0.0108748 0)
(3.77877 -0.0101099 0)
(3.8677 -0.00939212 0)
(3.9503 -0.00872021 0)
(4.02697 -0.00809246 0)
(4.09811 -0.00750693 0)
(4.16409 -0.00696156 0)
(4.22527 -0.0064542 0)
(4.28199 -0.00598264 0)
(4.33456 -0.0055447 0)
(4.38327 -0.00513823 0)
(4.42841 -0.00476116 0)
(4.47024 -0.00441153 0)
(4.50899 -0.00408746 0)
(4.5449 -0.00378716 0)
(4.57816 -0.00350894 0)
(4.60898 -0.00325118 0)
(4.63754 -0.00301241 0)
(4.664 -0.00279122 0)
(4.68851 -0.00258633 0)
(4.71123 -0.00239653 0)
(4.73229 -0.00222072 0)
(4.7518 -0.00205788 0)
(4.76989 -0.00190704 0)
(4.78665 -0.00176732 0)
(4.80218 -0.00163791 0)
(4.81658 -0.00151803 0)
(4.82993 -0.00140698 0)
(4.8423 -0.00130412 0)
(4.85377 -0.00120882 0)
(4.8644 -0.00112052 0)
(4.87426 -0.00103871 0)
(4.8834 -0.000962907 0)
(4.89187 -0.000892662 0)
(4.89972 -0.000827562 0)
(4.90701 -0.000767229 0)
(4.91376 -0.000711308 0)
(4.92002 -0.000659474 0)
(4.92582 -0.000611424 0)
(4.93121 -0.00056688 0)
(4.9362 -0.000525583 0)
(4.94083 -0.000487297 0)
(4.94512 -0.000451801 0)
(4.9491 -0.000418889 0)
(4.95279 -0.000388374 0)
(4.95621 -0.00036008 0)
(4.95939 -0.000333844 0)
(4.96233 -0.000309515 0)
(4.96506 -0.000286954 0)
(4.96759 -0.000266029 0)
(4.96994 -0.000246621 0)
(4.97212 -0.000228618 0)
(4.97414 -0.000211915 0)
(4.97602 -0.000196418 0)
(4.97776 -0.000182038 0)
(4.97937 -0.000168694 0)
(4.98087 -0.000156309 0)
(4.98226 -0.000144816 0)
(4.98355 -0.000134152 0)
(4.98475 -0.000124259 0)
(4.98587 -0.000115083 0)
(4.9869 -0.000106575 0)
(4.98786 -9.86886e-05 0)
(4.98875 -9.13817e-05 0)
(4.98958 -8.46135e-05 0)
(4.99034 -7.83463e-05 0)
(4.99105 -7.25451e-05 0)
(4.99171 -6.71768e-05 0)
(4.99232 -6.22105e-05 0)
(4.99289 -5.76171e-05 0)
(4.99341 -5.33702e-05 0)
(4.9939 -4.94451e-05 0)
(4.99435 -4.5818e-05 0)
(4.99476 -4.24661e-05 0)
(4.99515 -3.93678e-05 0)
(4.9955 -3.65031e-05 0)
(4.99583 -3.38531e-05 0)
(4.99613 -3.13996e-05 0)
(4.99641 -2.91254e-05 0)
(4.99667 -2.70146e-05 0)
(4.9969 -2.50523e-05 0)
(4.99712 -2.32248e-05 0)
(4.99733 -2.15197e-05 0)
(4.99751 -1.99262e-05 0)
(4.99769 -1.84349e-05 0)
(4.99785 -1.70379e-05 0)
(4.998 -1.57277e-05 0)
(4.99813 -1.44978e-05 0)
(4.99826 -1.33421e-05 0)
(4.99837 -1.22547e-05 0)
(4.99848 -1.12296e-05 0)
(4.99857 -1.02609e-05 0)
(4.99866 -9.3433e-06 0)
(4.99874 -8.47181e-06 0)
(4.99882 -7.64119e-06 0)
(4.99888 -6.84544e-06 0)
(4.99894 -6.07766e-06 0)
(4.99899 -5.3305e-06 0)
(4.99903 -4.59651e-06 0)
(4.99907 -3.86805e-06 0)
(4.9991 -3.13695e-06 0)
(4.99913 -2.3943e-06 0)
(4.99915 -1.63041e-06 0)
(4.99917 -8.35202e-07 0)
(4.99917 1.70294e-09 0)
(4.99918 8.91121e-07 0)
(4.99917 1.84482e-06 0)
(4.99916 2.8761e-06 0)
(4.99913 4.00018e-06 0)
(4.9991 5.23466e-06 0)
(4.99906 6.60003e-06 0)
(4.999 8.12071e-06 0)
(4.99893 9.8263e-06 0)
(4.99884 1.1753e-05 0)
(4.99873 1.39448e-05 0)
(4.99861 1.64534e-05 0)
(4.99846 1.93382e-05 0)
(4.99828 2.26654e-05 0)
(4.99807 2.65078e-05 0)
(4.99783 3.09452e-05 0)
(4.99754 3.60671e-05 0)
(4.9972 4.19789e-05 0)
(4.9968 4.881e-05 0)
(4.99633 5.67237e-05 0)
(4.99578 6.5925e-05 0)
(4.99514 7.66653e-05 0)
(4.9944 8.92436e-05 0)
(4.99352 0.000104009 0)
(4.9925 0.000121372 0)
(4.99131 0.000141822 0)
(4.98991 0.000165953 0)
(4.98826 0.00019449 0)
(4.98633 0.000228303 0)
(4.98405 0.000268421 0)
(4.98136 0.000316086 0)
(4.97818 0.000372903 0)
(4.97442 0.000441127 0)
(4.96996 0.000524056 0)
(4.96467 0.00062642 0)
(4.95836 0.000754615 0)
(4.95075 0.000916837 0)
(4.94148 0.0011237 0)
(4.93005 0.0013907 0)
(4.91575 0.00174456 0)
(4.89755 0.00223548 0)
(4.8738 0.00296047 0)
(4.84149 0.00412386 0)
(4.79406 0.00628414 0)
(4.71175 0.0117716 0)
(4.49778 0.035174 0)
(4.41607 0.25685 0)
(4.42999 0.279713 0)
(7.15323 0.187215 0)
(0 0 0)
(0 0 0)
(0 0 0)
(0 0 0)
(0 0 0)
(0 0 0)
(0 0 0)
(0 0 0)
(0 0 0)
(0 0 0)
(0 0 0)
(0 0 0)
(0 0 0)
(0 0 0)
(0 0 0)
(0 0 0)
(0 0 0)
(0 0 0)
(0 0 0)
(0 0 0)
(0 0 0)
(0 0 0)
(0 0 0)
(0 0 0)
(0 0 0)
(0 0 0)
(0 0 0)
(0 0 0)
(0 0 0)
(0 0 0)
(0 0 0)
(0 0 0)
(0 0 0)
(0 0 0)
(0 0 0)
(0 0 0)
(0 0 0)
(0 0 0)
(0 0 0)
(0 0 0)
(0 0 0)
(0 0 0)
(0 0 0)
(0 0 0)
(0 0 0)
(0 0 0)
(0 0 0)
(0 0 0)
(0 0 0)
(0 0 0)
(0 0 0)
(0 0 0)
(0 0 0)
(0 0 0)
(0 0 0)
(0 0 0)
(0 0 0)
(0 0 0)
(0 0 0)
(0 0 0)
(0 0 0)
(0 0 0)
(0 0 0)
(0 0 0)
(0 0 0)
(0 0 0)
(0 0 0)
(0 0 0)
(0 0 0)
(0 0 0)
(0 0 0)
(0 0 0)
(0 0 0)
(0 0 0)
(0 0 0)
(0 0 0)
(0 0 0)
(3.40575 0.0187982 0)
(0.279799 -0.261258 0)
(0.468685 -0.199018 0)
(0.715183 -0.185678 0)
(0.960254 -0.1794 0)
(1.19876 -0.173895 0)
(1.42978 -0.168056 0)
(1.6526 -0.161716 0)
(1.86654 -0.154927 0)
(2.07107 -0.1478 0)
(2.2658 -0.140453 0)
(2.45053 -0.133002 0)
(2.62518 -0.125549 0)
(2.78982 -0.118183 0)
(2.9446 -0.110975 0)
(3.08978 -0.103982 0)
(3.22569 -0.0972486 0)
(3.35269 -0.0908043 0)
(3.4712 -0.0846701 0)
(3.58163 -0.0788573 0)
(3.68444 -0.0733703 0)
(3.78005 -0.0682079 0)
(3.8689 -0.0633642 0)
(3.95142 -0.0588301 0)
(4.02802 -0.0545943 0)
(4.09908 -0.0506437 0)
(4.165 -0.0469642 0)
(4.22612 -0.0435411 0)
(4.28277 -0.0403596 0)
(4.33528 -0.0374049 0)
(4.38395 -0.0346627 0)
(4.42904 -0.0321189 0)
(4.47082 -0.0297602 0)
(4.50953 -0.0275739 0)
(4.5454 -0.0255478 0)
(4.57862 -0.0236707 0)
(4.60941 -0.0219316 0)
(4.63793 -0.0203207 0)
(4.66436 -0.0188284 0)
(4.68886 -0.0174462 0)
(4.71155 -0.0161659 0)
(4.73258 -0.0149801 0)
(4.75207 -0.0138817 0)
(4.77014 -0.0128643 0)
(4.78688 -0.0119219 0)
(4.8024 -0.0110491 0)
(4.81678 -0.0102405 0)
(4.83011 -0.00949153 0)
(4.84247 -0.00879766 0)
(4.85393 -0.00815482 0)
(4.86455 -0.00755923 0)
(4.8744 -0.00700737 0)
(4.88352 -0.00649601 0)
(4.89199 -0.00602214 0)
(4.89983 -0.00558298 0)
(4.90711 -0.00517596 0)
(4.91385 -0.00479871 0)
(4.9201 -0.00444902 0)
(4.9259 -0.00412487 0)
(4.93128 -0.00382438 0)
(4.93627 -0.0035458 0)
(4.94089 -0.00328752 0)
(4.94518 -0.00304807 0)
(4.94915 -0.00282605 0)
(4.95284 -0.00262019 0)
(4.95626 -0.0024293 0)
(4.95943 -0.0022523 0)
(4.96237 -0.00208815 0)
(4.9651 -0.00193592 0)
(4.96763 -0.00179473 0)
(4.96997 -0.00166377 0)
(4.97215 -0.00154229 0)
(4.97417 -0.0014296 0)
(4.97604 -0.00132505 0)
(4.97778 -0.00122805 0)
(4.97939 -0.00113805 0)
(4.98089 -0.00105455 0)
(4.98228 -0.00097709 0)
(4.98357 -0.000905233 0)
(4.98477 -0.000838588 0)
(4.98588 -0.000776791 0)
(4.98691 -0.000719505 0)
(4.98787 -0.000666414 0)
(4.98876 -0.000617226 0)
(4.98959 -0.000571665 0)
(4.99035 -0.000529474 0)
(4.99106 -0.000490414 0)
(4.99172 -0.000454259 0)
(4.99233 -0.000420799 0)
(4.9929 -0.000389836 0)
(4.99342 -0.00036119 0)
(4.99391 -0.00033469 0)
(4.99435 -0.000310173 0)
(4.99477 -0.000287488 0)
(4.99515 -0.000266493 0)
(4.99551 -0.000247056 0)
(4.99583 -0.000229054 0)
(4.99613 -0.00021237 0)
(4.99641 -0.000196895 0)
(4.99667 -0.000182528 0)
(4.99691 -0.000169174 0)
(4.99713 -0.000156746 0)
(4.99733 -0.000145165 0)
(4.99752 -0.000134359 0)
(4.99769 -0.000124265 0)
(4.99785 -0.000114825 0)
(4.998 -0.000105986 0)
(4.99813 -9.76971e-05 0)
(4.99826 -8.99132e-05 0)
(4.99837 -8.25898e-05 0)
(4.99848 -7.56838e-05 0)
(4.99858 -6.91545e-05 0)
(4.99866 -6.29636e-05 0)
(4.99874 -5.70748e-05 0)
(4.99882 -5.1451e-05 0)
(4.99888 -4.60526e-05 0)
(4.99894 -4.08369e-05 0)
(4.99899 -3.57599e-05 0)
(4.99903 -3.0776e-05 0)
(4.99907 -2.58373e-05 0)
(4.99911 -2.08923e-05 0)
(4.99913 -1.58842e-05 0)
(4.99915 -1.07512e-05 0)
(4.99917 -5.42662e-06 0)
(4.99918 1.61127e-07 0)
(4.99918 6.08976e-06 0)
(4.99917 1.24454e-05 0)
(4.99916 1.93252e-05 0)
(4.99914 2.68389e-05 0)
(4.9991 3.51115e-05 0)
(4.99906 4.42862e-05 0)
(4.999 5.45297e-05 0)
(4.99893 6.60388e-05 0)
(4.99884 7.90477e-05 0)
(4.99874 9.3835e-05 0)
(4.99861 0.000110728 0)
(4.99846 0.000130106 0)
(4.99829 0.000152402 0)
(4.99808 0.000178107 0)
(4.99783 0.000207782 0)
(4.99755 0.000242067 0)
(4.99721 0.00028172 0)
(4.99681 0.000327649 0)
(4.99634 0.000380962 0)
(4.9958 0.000443007 0)
(4.99516 0.000515411 0)
(4.99442 0.000600114 0)
(4.99355 0.000699411 0)
(4.99253 0.000816035 0)
(4.99134 0.000953281 0)
(4.98995 0.00111517 0)
(4.98831 0.0013066 0)
(4.98639 0.00153355 0)
(4.98412 0.00180321 0)
(4.98145 0.00212445 0)
(4.97829 0.00250856 0)
(4.97455 0.00297069 0)
(4.97012 0.00353186 0)
(4.96487 0.00422126 0)
(4.95861 0.00507869 0)
(4.95106 0.00615751 0)
(4.94189 0.00753107 0)
(4.93058 0.00930879 0)
(4.91648 0.0116713 0)
(4.8986 0.0149379 0)
(4.87543 0.0196987 0)
(4.84436 0.0271348 0)
(4.80066 0.0400267 0)
(4.73669 0.0667063 0)
(4.65528 0.140993 0)
(4.65629 0.362905 0)
(4.74308 0.456031 0)
(4.81127 0.515386 0)
(4.79321 0.320846 0)
(4.8401 0.287922 0)
(4.96287 0.31794 1.81156e-19)
(5.02542 0.327918 1.78077e-19)
(5.0543 0.333092 0)
(5.00631 0.334779 0)
(4.80364 0.313279 0)
(7.29518 0.12336 0)
(0 0 0)
(0 0 0)
(0 0 0)
(0 0 0)
(0 0 0)
(0 0 0)
(0 0 0)
(0 0 0)
(0 0 0)
(0 0 0)
(0 0 0)
(0 0 0)
(0 0 0)
(0 0 0)
(0 0 0)
(0 0 0)
(0 0 0)
(0 0 0)
(0 0 0)
(0 0 0)
(0 0 0)
(0 0 0)
(0 0 0)
(0 0 0)
(0 0 0)
(0 0 0)
(0 0 0)
(0 0 0)
(0 0 0)
(0 0 0)
(0 0 0)
(0 0 0)
(0 0 0)
(0 0 0)
(0 0 0)
(0 0 0)
(0 0 0)
(0 0 0)
(0 0 0)
(0 0 0)
(0 0 0)
(0 0 0)
(0 0 0)
(0 0 0)
(0 0 0)
(0 0 0)
(0 0 0)
(0 0 0)
(0 0 0)
(0 0 0)
(0 0 0)
(0 0 0)
(0 0 0)
(0 0 0)
(0 0 0)
(0 0 0)
(0 0 0)
(0 0 0)
(0 0 0)
(0 0 0)
(0 0 0)
(0 0 0)
(0 0 0)
(0 0 0)
(0 0 0)
(0 0 0)
(0 0 0)
(0 0 0)
(0 0 0)
(3.37953 -0.317954 0)
(0.249059 -0.406739 0)
(0.480281 -0.399046 0)
(0.723732 -0.388594 0)
(0.96732 -0.378365 0)
(1.20595 -0.367333 0)
(1.43756 -0.355096 0)
(1.661 -0.341677 0)
(1.87544 -0.327278 0)
(2.08033 -0.312156 0)
(2.27527 -0.296575 0)
(2.46007 -0.280782 0)
(2.63466 -0.264994 0)
(2.79914 -0.249398 0)
(2.95368 -0.234146 0)
(3.09856 -0.219357 0)
(3.23412 -0.205122 0)
(3.36074 -0.191505 0)
(3.47884 -0.178548 0)
(3.58886 -0.166274 0)
(3.69125 -0.154691 0)
(3.78645 -0.143797 0)
(3.8749 -0.133577 0)
(3.95703 -0.124012 0)
(4.03325 -0.115078 0)
(4.10396 -0.106747 0)
(4.16954 -0.0989883 0)
(4.23034 -0.0917711 0)
(4.2867 -0.0850637 0)
(4.33893 -0.0788351 0)
(4.38733 -0.0730545 0)
(4.43218 -0.0676926 0)
(4.47373 -0.062721 0)
(4.51222 -0.0581128 0)
(4.54789 -0.0538425 0)
(4.58094 -0.0498859 0)
(4.61155 -0.0462205 0)
(4.63992 -0.0428251 0)
(4.6662 -0.03968 0)
(4.69056 -0.0367669 0)
(4.71313 -0.0340687 0)
(4.73404 -0.0315695 0)
(4.75343 -0.0292548 0)
(4.77139 -0.0271109 0)
(4.78804 -0.025125 0)
(4.80347 -0.0232856 0)
(4.81778 -0.0215818 0)
(4.83104 -0.0200034 0)
(4.84333 -0.0185411 0)
(4.85472 -0.0171864 0)
(4.86528 -0.0159312 0)
(4.87508 -0.0147682 0)
(4.88415 -0.0136905 0)
(4.89257 -0.0126919 0)
(4.90037 -0.0117663 0)
(4.90761 -0.0109085 0)
(4.91432 -0.0101134 0)
(4.92054 -0.00937645 0)
(4.9263 -0.00869329 0)
(4.93165 -0.00805998 0)
(4.93661 -0.00747286 0)
(4.94121 -0.00692854 0)
(4.94547 -0.00642387 0)
(4.94943 -0.00595595 0)
(4.95309 -0.00552208 0)
(4.95649 -0.00511976 0)
(4.95965 -0.00474668 0)
(4.96257 -0.00440069 0)
(4.96529 -0.00407981 0)
(4.9678 -0.00378219 0)
(4.97014 -0.00350612 0)
(4.9723 -0.00325004 0)
(4.97431 -0.00301247 0)
(4.97617 -0.00279207 0)
(4.9779 -0.0025876 0)
(4.97951 -0.00239791 0)
(4.981 -0.00222194 0)
(4.98238 -0.0020587 0)
(4.98366 -0.00190731 0)
(4.98485 -0.00176692 0)
(4.98596 -0.00163676 0)
(4.98698 -0.00151613 0)
(4.98794 -0.00140435 0)
(4.98882 -0.0013008 0)
(4.98964 -0.00120489 0)
(4.9904 -0.00111609 0)
(4.99111 -0.00103389 0)
(4.99177 -0.000957797 0)
(4.99237 -0.000887378 0)
(4.99294 -0.000822212 0)
(4.99346 -0.000761911 0)
(4.99394 -0.000706107 0)
(4.99438 -0.000654459 0)
(4.9948 -0.000606646 0)
(4.99518 -0.00056237 0)
(4.99553 -0.000521353 0)
(4.99585 -0.000483339 0)
(4.99615 -0.000448085 0)
(4.99643 -0.000415368 0)
(4.99669 -0.000384981 0)
(4.99692 -0.000356732 0)
(4.99714 -0.000330444 0)
(4.99734 -0.000305956 0)
(4.99753 -0.000283122 0)
(4.9977 -0.000261809 0)
(4.99786 -0.000241892 0)
(4.99801 -0.000223256 0)
(4.99814 -0.000205793 0)
(4.99827 -0.000189401 0)
(4.99838 -0.000173981 0)
(4.99849 -0.00015944 0)
(4.99858 -0.000145691 0)
(4.99867 -0.00013265 0)
(4.99875 -0.000120236 0)
(4.99882 -0.000108368 0)
(4.99889 -9.69618e-05 0)
(4.99895 -8.5931e-05 0)
(4.999 -7.51876e-05 0)
(4.99904 -6.46404e-05 0)
(4.99908 -5.4193e-05 0)
(4.99911 -4.37412e-05 0)
(4.99914 -3.31707e-05 0)
(4.99916 -2.23564e-05 0)
(4.99917 -1.11617e-05 0)
(4.99918 5.63626e-07 0)
(4.99919 1.29863e-05 0)
(4.99918 2.62931e-05 0)
(4.99917 4.06952e-05 0)
(4.99915 5.64308e-05 0)
(4.99911 7.37699e-05 0)
(4.99907 9.30199e-05 0)
(4.99902 0.000114535 0)
(4.99895 0.000138726 0)
(4.99886 0.000166077 0)
(4.99876 0.000197154 0)
(4.99864 0.000232618 0)
(4.99849 0.000273237 0)
(4.99832 0.0003199 0)
(4.99811 0.000373634 0)
(4.99787 0.000435628 0)
(4.99759 0.000507266 0)
(4.99726 0.000590184 0)
(4.99687 0.000686329 0)
(4.99642 0.000798033 0)
(4.99589 0.000928091 0)
(4.99526 0.00107984 0)
(4.99454 0.00125725 0)
(4.99369 0.00146504 0)
(4.9927 0.00170888 0)
(4.99154 0.00199563 0)
(4.99018 0.00233366 0)
(4.98858 0.00273322 0)
(4.98671 0.00320684 0)
(4.9845 0.00376986 0)
(4.9819 0.0044412 0)
(4.97883 0.00524486 0)
(4.9752 0.00621217 0)
(4.97092 0.0073851 0)
(4.96586 0.00882069 0)
(4.95984 0.0105964 0)
(4.95263 0.0128183 0)
(4.94389 0.015635 0)
(4.93322 0.0192681 0)
(4.92007 0.0240708 0)
(4.90371 0.0306338 0)
(4.88314 0.0399807 0)
(4.85697 0.0539914 0)
(4.82377 0.0764439 0)
(4.78409 0.11551 0)
(4.74916 0.187895 0)
(4.75679 0.308972 0)
(4.81216 0.393027 0)
(4.89416 0.454849 0)
(4.97142 0.445605 0)
(4.99097 0.402631 0)
(5.00033 0.46048 0)
(5.03991 0.48814 0)
(5.08135 0.509587 0)
(5.12842 0.532347 0)
(5.17541 0.534712 0)
(5.18264 0.51075 0)
(5.16068 0.344651 -1.7979e-19)
(5.2061 0.331958 0)
(5.2742 0.346594 1.84821e-19)
(5.31272 0.351391 0)
(5.3305 0.353407 0)
(5.24337 0.356467 0)
(3.42537 0.36723 7.55482e-21)
(16.684 0.594974 0)
(0 0 0)
(0 0 0)
(0 0 0)
(0 0 0)
(0 0 0)
(0 0 0)
(0 0 0)
(0 0 0)
(0 0 0)
(0 0 0)
(0 0 0)
(0 0 0)
(0 0 0)
(0 0 0)
(0 0 0)
(0 0 0)
(0 0 0)
(0 0 0)
(0 0 0)
(0 0 0)
(0 0 0)
(0 0 0)
(0 0 0)
(0 0 0)
(0 0 0)
(0 0 0)
(0 0 0)
(0 0 0)
(0 0 0)
(0 0 0)
(0 0 0)
(0 0 0)
(0 0 0)
(0 0 0)
(0 0 0)
(0 0 0)
(0 0 0)
(0 0 0)
(0 0 0)
(0 0 0)
(0 0 0)
(0 0 0)
(0 0 0)
(0 0 0)
(0 0 0)
(0 0 0)
(0 0 0)
(0 0 0)
(0 0 0)
(0 0 0)
(0 0 0)
(0 0 0)
(0 0 0)
(0 0 0)
(0 0 0)
(0 0 0)
(0 0 0)
(0 0 0)
(0 0 0)
(0 0 0)
(0 0 0)
(3.36851 -0.585646 0)
(0.232201 -0.601767 0)
(0.483606 -0.600937 0)
(0.73219 -0.59136 0)
(0.977739 -0.57787 0)
(1.21789 -0.561586 0)
(1.45088 -0.542933 0)
(1.67547 -0.522301 0)
(1.89081 -0.500117 0)
(2.09631 -0.476823 0)
(2.2916 -0.45284 0)
(2.4765 -0.428556 0)
(2.65099 -0.404308 0)
(2.81518 -0.38038 0)
(2.9693 -0.357003 0)
(3.11365 -0.334358 0)
(3.24859 -0.312578 0)
(3.37455 -0.29176 0)
(3.49195 -0.271964 0)
(3.60125 -0.253223 0)
(3.70292 -0.235548 0)
(3.79741 -0.218929 0)
(3.88517 -0.203346 0)
(3.96663 -0.188768 0)
(4.04221 -0.175155 0)
(4.11232 -0.162463 0)
(4.17731 -0.150647 0)
(4.23757 -0.139657 0)
(4.29341 -0.129445 0)
(4.34516 -0.119962 0)
(4.39311 -0.111164 0)
(4.43754 -0.103003 0)
(4.4787 -0.0954364 0)
(4.51683 -0.0884236 0)
(4.55216 -0.0819251 0)
(4.58489 -0.0759043 0)
(4.61522 -0.0703267 0)
(4.64331 -0.0651602 0)
(4.66935 -0.0603746 0)
(4.69347 -0.055942 0)
(4.71582 -0.0518366 0)
(4.73654 -0.0480342 0)
(4.75574 -0.0445124 0)
(4.77353 -0.0412504 0)
(4.79003 -0.0382291 0)
(4.80531 -0.0354305 0)
(4.81948 -0.0328381 0)
(4.83262 -0.0304366 0)
(4.84479 -0.0282118 0)
(4.85608 -0.0261506 0)
(4.86654 -0.0242408 0)
(4.87624 -0.0224713 0)
(4.88523 -0.0208315 0)
(4.89357 -0.019312 0)
(4.9013 -0.0179037 0)
(4.90847 -0.0165985 0)
(4.91511 -0.0153887 0)
(4.92127 -0.0142673 0)
(4.92699 -0.0132278 0)
(4.93228 -0.0122642 0)
(4.9372 -0.0113708 0)
(4.94175 -0.0105426 0)
(4.94598 -0.00977466 0)
(4.94989 -0.00906266 0)
(4.95353 -0.00840247 0)
(4.9569 -0.00779028 0)
(4.96002 -0.00722257 0)
(4.96292 -0.00669608 0)
(4.96561 -0.00620778 0)
(4.9681 -0.00575487 0)
(4.97041 -0.00533476 0)
(4.97256 -0.00494505 0)
(4.97455 -0.00458352 0)
(4.97639 -0.00424812 0)
(4.97811 -0.00393696 0)
(4.9797 -0.0036483 0)
(4.98117 -0.00338053 0)
(4.98254 -0.00313216 0)
(4.98381 -0.00290182 0)
(4.98499 -0.00268824 0)
(4.98609 -0.00249025 0)
(4.98711 -0.00230675 0)
(4.98805 -0.00213673 0)
(4.98893 -0.00197923 0)
(4.98974 -0.00183338 0)
(4.99049 -0.00169833 0)
(4.99119 -0.00157331 0)
(4.99184 -0.0014576 0)
(4.99244 -0.00135051 0)
(4.993 -0.00125141 0)
(4.99352 -0.0011597 0)
(4.99399 -0.00107482 0)
(4.99444 -0.000996251 0)
(4.99484 -0.000923498 0)
(4.99522 -0.000856112 0)
(4.99557 -0.00079367 0)
(4.99589 -0.000735779 0)
(4.99619 -0.000682077 0)
(4.99646 -0.000632224 0)
(4.99672 -0.00058591 0)
(4.99695 -0.000542848 0)
(4.99717 -0.000502775 0)
(4.99737 -0.000465452 0)
(4.99755 -0.000430659 0)
(4.99772 -0.000398194 0)
(4.99788 -0.000367868 0)
(4.99803 -0.000339504 0)
(4.99816 -0.000312935 0)
(4.99829 -0.000288002 0)
(4.9984 -0.000264556 0)
(4.9985 -0.000242453 0)
(4.9986 -0.000221558 0)
(4.99869 -0.000201741 0)
(4.99876 -0.000182875 0)
(4.99884 -0.000164835 0)
(4.9989 -0.000147491 0)
(4.99896 -0.000130715 0)
(4.99901 -0.000114376 0)
(4.99905 -9.83373e-05 0)
(4.99909 -8.24559e-05 0)
(4.99912 -6.6576e-05 0)
(4.99915 -5.05281e-05 0)
(4.99917 -3.41264e-05 0)
(4.99919 -1.71669e-05 0)
(4.9992 5.76669e-07 0)
(4.9992 1.93575e-05 0)
(4.99919 3.94609e-05 0)
(4.99918 6.1209e-05 0)
(4.99916 8.49656e-05 0)
(4.99913 0.000111142 0)
(4.99909 0.000140206 0)
(4.99904 0.000172695 0)
(4.99897 0.00020923 0)
(4.99889 0.000250534 0)
(4.99879 0.000297449 0)
(4.99867 0.000350956 0)
(4.99853 0.000412195 0)
(4.99837 0.000482493 0)
(4.99817 0.00056339 0)
(4.99794 0.000656686 0)
(4.99767 0.000764487 0)
(4.99735 0.000889284 0)
(4.99698 0.00103403 0)
(4.99654 0.00120223 0)
(4.99603 0.00139807 0)
(4.99543 0.00162652 0)
(4.99474 0.00189345 0)
(4.99392 0.0022059 0)
(4.99297 0.0025723 0)
(4.99186 0.00300287 0)
(4.99056 0.00351007 0)
(4.98903 0.00410916 0)
(4.98724 0.00481882 0)
(4.98514 0.00566194 0)
(4.98266 0.00666681 0)
(4.97974 0.007869 0)
(4.97631 0.00931414 0)
(4.97227 0.0110622 0)
(4.96751 0.0131933 0)
(4.96189 0.0158156 0)
(4.95521 0.0190764 0)
(4.94719 0.0231811 0)
(4.93752 0.0284289 0)
(4.92583 0.035278 0)
(4.91169 0.0444528 0)
(4.89464 0.0571117 0)
(4.87434 0.0751456 0)
(4.85125 0.101722 0)
(4.82835 0.141923 0)
(4.81438 0.201918 0)
(4.82499 0.280088 0)
(4.86305 0.34516 0)
(4.91737 0.390639 0)
(4.96949 0.403485 0)
(5.00051 0.403297 0)
(5.02524 0.431789 0)
(5.05946 0.456029 0)
(5.09759 0.476205 0)
(5.13878 0.493169 0)
(5.18006 0.501317 0)
(5.21863 0.506516 0)
(5.25738 0.510236 0)
(5.27735 0.486963 0)
(5.29155 0.515946 0)
(5.32023 0.531846 0)
(5.3472 0.547574 0)
(5.37739 0.580584 0)
(5.54464 0.73562 0)
(5.53512 0.284978 0)
(5.42627 0.354917 0)
(5.50804 0.364459 0)
(5.54536 0.368553 0)
(5.57609 0.370719 0)
(5.59401 0.37179 0)
(5.49357 0.375434 0)
(3.38601 0.367909 -1.17589e-20)
(17.494 0.619479 0)
(0 0 0)
(0 0 0)
(0 0 0)
(0 0 0)
(0 0 0)
(0 0 0)
(0 0 0)
(0 0 0)
(0 0 0)
(0 0 0)
(0 0 0)
(0 0 0)
(0 0 0)
(0 0 0)
(0 0 0)
(0 0 0)
(0 0 0)
(0 0 0)
(0 0 0)
(0 0 0)
(0 0 0)
(0 0 0)
(0 0 0)
(0 0 0)
(0 0 0)
(0 0 0)
(0 0 0)
(0 0 0)
(0 0 0)
(0 0 0)
(0 0 0)
(0 0 0)
(0 0 0)
(0 0 0)
(0 0 0)
(0 0 0)
(0 0 0)
(0 0 0)
(0 0 0)
(0 0 0)
(0 0 0)
(0 0 0)
(0 0 0)
(0 0 0)
(0 0 0)
(0 0 0)
(0 0 0)
(0 0 0)
(0 0 0)
(0 0 0)
(0 0 0)
(0 0 0)
(0 0 0)
(3.36668 -0.811048 0)
(0.230458 -0.813212 0)
(0.488839 -0.808742 0)
(0.742702 -0.796769 0)
(0.991805 -0.779264 0)
(1.23468 -0.757438 0)
(1.46987 -0.732107 0)
(1.69621 -0.703972 0)
(1.91284 -0.673705 0)
(2.11921 -0.641952 0)
(2.31496 -0.609307 0)
(2.49998 -0.576305 0)
(2.67428 -0.543405 0)
(2.83804 -0.510989 0)
(2.99153 -0.479365 0)
(3.13509 -0.448772 0)
(3.26915 -0.419384 0)
(3.39414 -0.391324 0)
(3.51053 -0.364667 0)
(3.61881 -0.339453 0)
(3.71945 -0.315689 0)
(3.81293 -0.293361 0)
(3.8997 -0.272437 0)
(3.98021 -0.252872 0)
(4.05488 -0.234609 0)
(4.12412 -0.217589 0)
(4.1883 -0.201747 0)
(4.24778 -0.187017 0)
(4.30289 -0.173332 0)
(4.35396 -0.160628 0)
(4.40128 -0.148842 0)
(4.44511 -0.137911 0)
(4.48572 -0.127778 0)
(4.52334 -0.118387 0)
(4.55819 -0.109685 0)
(4.59047 -0.101623 0)
(4.62039 -0.0941548 0)
(4.6481 -0.0872373 0)
(4.67378 -0.0808302 0)
(4.69758 -0.0748959 0)
(4.71963 -0.0693997 0)
(4.74007 -0.0643092 0)
(4.759 -0.0595944 0)
(4.77656 -0.0552276 0)
(4.79283 -0.0511828 0)
(4.80791 -0.0474362 0)
(4.82188 -0.0439657 0)
(4.83484 -0.0407506 0)
(4.84685 -0.0377722 0)
(4.85799 -0.0350127 0)
(4.86831 -0.0324559 0)
(4.87788 -0.0300868 0)
(4.88675 -0.0278915 0)
(4.89498 -0.0258571 0)
(4.9026 -0.0239716 0)
(4.90968 -0.0222241 0)
(4.91623 -0.0206044 0)
(4.92231 -0.019103 0)
(4.92795 -0.0177112 0)
(4.93318 -0.016421 0)
(4.93802 -0.0152249 0)
(4.94252 -0.014116 0)
(4.94669 -0.0130878 0)
(4.95055 -0.0121345 0)
(4.95414 -0.0112506 0)
(4.95746 -0.0104309 0)
(4.96055 -0.00967081 0)
(4.96341 -0.00896587 0)
(4.96606 -0.00831207 0)
(4.96852 -0.00770565 0)
(4.9708 -0.00714315 0)
(4.97292 -0.00662136 0)
(4.97488 -0.0061373 0)