/*--------------------------------*- C++ -*----------------------------------*\
| =========                 |                                                 |
| \\      /  F ield         | OpenFOAM: The Open Source CFD Toolbox           |
|  \\    /   O peration     | Version:  2206                                  |
|   \\  /    A nd           | Website:  www.openfoam.com                      |
|    \\/     M anipulation  |                                                 |
\*---------------------------------------------------------------------------*/
FoamFile
{
    version     2.0;
    format      ascii;
    arch        "LSB;label=32;scalar=64";
    class       volScalarField;
    location    "0.9";
    object      epsilon;
}
// * * * * * * * * * * * * * * * * * * * * * * * * * * * * * * * * * * * * * //

dimensions      [0 2 -3 0 0 0 0];

internalField   nonuniform List<scalar> 
1875
(
0.00033027
0.000721464
0.00148947
0.00223915
0.00272641
0.002974
0.0030407
0.00298788
0.00286676
0.00271342
0.00255154
0.00239647
0.00225779
0.00214147
0.00205177
0.00199121
0.00196277
0.00197013
0.00201924
0.00211994
0.00228822
0.0025498
0.00294596
0.00354318
0.00444861
0.00583463
0.00797585
0.0113017
0.0164605
0.0243737
0.0359877
0.0531937
0.0790182
0.114496
0.158298
0.203758
0.245687
0.27416
0.28143
0.264353
0.226302
0.174774
0.120678
0.0771159
0.0471296
0.0283578
0.0171585
0.0105742
0.00669641
0.00439753
0.00303101
0.00221938
0.00173898
0.00145618
0.00129343
0.00120502
0.001163
0.00115045
0.00115605
0.00117204
0.00119293
0.00121461
0.00123401
0.00125036
0.00126515
0.00127824
0.00128974
0.00129953
0.00130767
0.00131433
0.0013197
0.00132397
0.00132732
0.00132987
0.00133164
0.000234952
0.000340853
0.000559771
0.000847742
0.00114797
0.0013977
0.00158463
0.00170575
0.00176586
0.00177561
0.00174805
0.00169616
0.00163121
0.00156246
0.00149688
0.00143727
0.00138761
0.00135059
0.00132826
0.00132286
0.00133739
0.0013764
0.00144684
0.00155934
0.00173
0.00198289
0.00235358
0.00289424
0.00368035
0.00481875
0.00644592
0.00878547
0.0122003
0.0171078
0.0243585
0.0352655
0.049058
0.0642745
0.0783839
0.0886594
0.0930515
0.0906323
0.0819755
0.0692007
0.0547188
0.0406781
0.0286083
0.0192477
0.0125858
0.00815827
0.00535657
0.00363523
0.00258629
0.00194953
0.00156535
0.00133204
0.00118867
0.00110193
0.00105055
0.00102129
0.00100566
0.000998348
0.000995963
0.000996486
0.00099877
0.00100202
0.00100557
0.00100905
0.00101228
0.00101514
0.00101759
0.00101965
0.00102134
0.00102267
0.00102356
0.000201554
0.000227203
0.000288998
0.000382923
0.00049609
0.000611567
0.000719288
0.000809843
0.00087959
0.000927365
0.00095377
0.000961235
0.000953145
0.000933389
0.00090632
0.000874775
0.000840655
0.000806384
0.000773758
0.00074421
0.000718963
0.000699314
0.000686868
0.000683771
0.000692983
0.000718622
0.000766578
0.000845802
0.000970584
0.00116185
0.00144122
0.00182698
0.00233821
0.00300895
0.00395227
0.00570347
0.00879861
0.0133036
0.0188696
0.0247689
0.0301243
0.0340613
0.0359376
0.0355896
0.0332097
0.0292722
0.0244077
0.0192845
0.0144881
0.010433
0.007293
0.00503049
0.00348502
0.0024668
0.00180996
0.00139132
0.00112477
0.0009543
0.000844909
0.000774494
0.000729168
0.000700046
0.000681533
0.000669974
0.000662984
0.000658972
0.000656851
0.000655911
0.000655684
0.000655861
0.000656246
0.000656718
0.000657207
0.000657665
0.000658013
0.000190454
0.000189174
0.000201526
0.000227909
0.000265942
0.00031037
0.000356221
0.000399403
0.000437502
0.000468867
0.0004917
0.000505797
0.000511454
0.000509384
0.000500765
0.000487687
0.000470698
0.000450869
0.000429235
0.000406807
0.000384549
0.000363447
0.000344563
0.000329137
0.00031876
0.000315778
0.000324496
0.000354453
0.000425795
0.000565717
0.000777542
0.00102622
0.00126667
0.00146183
0.00162538
0.0018042
0.00235355
0.00345675
0.00520684
0.00751152
0.0101367
0.0127357
0.0149269
0.0163979
0.0169584
0.016575
0.0153624
0.0135318
0.0113439
0.00907331
0.00695817
0.00515738
0.00373489
0.00267704
0.00192531
0.0014079
0.00105964
0.000828128
0.000675113
0.000573863
0.000506776
0.000462605
0.000433528
0.000414422
0.000401931
0.000393831
0.00038864
0.000385367
0.00038335
0.000382147
0.000381466
0.000381114
0.000380966
0.000380949
0.000381004
0.000186976
0.000176243
0.000171793
0.000174008
0.000182383
0.000195479
0.000211428
0.000228371
0.000244637
0.000258979
0.000270358
0.00027827
0.000282482
0.000282945
0.000279753
0.000273609
0.000265175
0.000254758
0.000242752
0.000229693
0.000216282
0.000203159
0.000191183
0.000181476
0.00017574
0.000177227
0.000193976
0.00024769
0.000384548
0.000644161
0.000961916
0.00122754
0.00146859
0.00174311
0.00213478
0.00236193
0.00281416
0.00344614
0.00429212
0.00525011
0.00629668
0.0073802
0.00843332
0.00931138
0.00986741
0.0100129
0.00972275
0.00903047
0.00802212
0.00682314
0.00557021
0.00438153
0.00334027
0.00248728
0.00182587
0.00133469
0.000981733
0.000734511
0.000564477
0.000448546
0.000370116
0.00031736
0.000282081
0.000258581
0.000242986
0.000232674
0.000225886
0.000221444
0.000218558
0.000216702
0.000215522
0.000214786
0.000214338
0.000214086
0.000213984
0.000185865
0.000171987
0.000161595
0.000154856
0.000151636
0.000151477
0.00015368
0.000157411
0.000161812
0.000166164
0.000169877
0.000172468
0.000173596
0.000173057
0.000170768
0.00016698
0.000162126
0.000156288
0.000149635
0.000142476
0.000135199
0.000128329
0.000122616
0.00011925
0.000120518
0.000131994
0.000170162
0.000282445
0.000555345
0.000975213
0.00132321
0.00146345
0.0018563
0.0034437
0.00730754
0.0127996
0.0167156
0.0192746
0.0216723
0.0217624
0.0201592
0.017661
0.0150619
0.012809
0.0110117
0.0095915
0.00845249
0.00746686
0.00649913
0.00552721
0.0045717
0.00367262
0.00286923
0.00218809
0.00163772
0.00121093
0.000891004
0.00065767
0.00049118
0.000374623
0.000293962
0.000238607
0.000200946
0.000175519
0.000158461
0.00014708
0.000139523
0.000134528
0.000131241
0.000129089
0.000127687
0.000126781
0.0001262
0.00012584
0.000125652
0.000185479
0.000170545
0.000158078
0.000148022
0.000140258
0.000134577
0.000130674
0.000128163
0.000126616
0.000125631
0.000124854
0.000123972
0.000122725
0.000120926
0.000118443
0.000115388
0.000111965
0.00010823
0.000104304
0.000100349
9.66506e-05
9.36682e-05
9.21748e-05
9.36448e-05
0.000101479
0.000125441
0.000197364
0.000407842
0.000867325
0.00139108
0.00170769
0.00135855
0.00208918
0.00336456
0.00638515
0.0105476
0.00987167
0.00804414
0.0340671
0.0526663
0.0553747
0.0480058
0.0372537
0.027559
0.0201247
0.0147974
0.0111137
0.00859606
0.00678494
0.00540211
0.00429116
0.00337283
0.00261059
0.00198688
0.00148923
0.00110313
0.000811355
0.000595842
0.000439725
0.000328482
0.000250355
0.000196172
0.000158901
0.000133464
0.000116245
0.000104674
9.69468e-05
9.18141e-05
8.84209e-05
8.61873e-05
8.47226e-05
8.37661e-05
8.31443e-05
8.27467e-05
8.2516e-05
0.00018533
0.000170018
0.000156812
0.000145535
0.000136018
0.000128085
0.000121546
0.000116185
0.000111772
0.000108078
0.000104889
0.000102013
9.92811e-05
9.65586e-05
9.37519e-05
9.09053e-05
8.8064e-05
8.52686e-05
8.26076e-05
8.02367e-05
7.84239e-05
7.76425e-05
7.87922e-05
8.38226e-05
9.784e-05
0.000137148
0.000257572
0.000607294
0.00126767
0.00193759
0.00120173
0.00325068
0.0002
0.0002
0.0002
0.0002
0.0002
0.000292946
0.0304586
0.0336862
0.0494855
0.0535657
0.0451918
0.0347417
0.0256551
0.0186883
0.013645
0.0100495
0.00752886
0.00570438
0.00434438
0.00330501
0.00249889
0.00187191
0.00138755
0.0010202
0.000745873
0.000544493
0.000398918
0.000295096
0.000221916
0.000170873
0.000135638
0.000111519
9.51149e-05
8.40398e-05
7.66157e-05
7.16701e-05
6.83932e-05
6.6232e-05
6.48123e-05
6.38829e-05
6.32766e-05
6.28849e-05
6.26502e-05
0.000185264
0.000169803
0.000156315
0.000144574
0.000134377
0.000125541
0.000117897
0.000111283
0.000105543
0.000100531
9.611e-05
9.21551e-05
8.85576e-05
8.52271e-05
8.21006e-05
7.91911e-05
7.64997e-05
7.40584e-05
7.19449e-05
7.03107e-05
6.9435e-05
6.98478e-05
7.26375e-05
8.03728e-05
0.00010042
0.000158076
0.000341469
0.000868709
0.00174874
0.00153169
0.00479076
0.0002
0.0002
0.0002
0.0002
0.0002
0.0002
0.0002
0.0002
0.0291256
0.0182194
0.0250977
0.0270579
0.0245096
0.0203798
0.0162123
0.0125693
0.00961742
0.00732173
0.00555486
0.00419719
0.00315364
0.00235218
0.00173963
0.00127596
0.000929944
0.000675357
0.000490599
0.000358137
0.000264177
0.000198147
0.000152131
0.000120312
9.84751e-05
8.36095e-05
7.35483e-05
6.67819e-05
6.22607e-05
5.92572e-05
5.72722e-05
5.59661e-05
5.51101e-05
5.45509e-05
5.41882e-05
5.39655e-05
0.000185233
0.000169705
0.000156098
0.000144166
0.000133694
0.000124489
0.000116385
0.000109233
0.000102902
9.72762e-05
9.22534e-05
8.77439e-05
8.3671e-05
7.99719e-05
7.66044e-05
7.35607e-05
7.08403e-05
6.84734e-05
6.65369e-05
6.51856e-05
6.47189e-05
6.57328e-05
6.95204e-05
7.93351e-05
0.000105176
0.000183299
0.000442984
0.0011812
0.00227903
0.00211656
0.0002
0.0002
0.0002
0.0002
0.0002
0.0002
0.0002
0.0002
0.0002
0.0002
0.00522991
0.0064754
0.00927026
0.0109414
0.0111725
0.0103311
0.00888218
0.00735065
0.00590912
0.00464621
0.00358585
0.00272287
0.00203797
0.00150654
0.00110289
0.000802348
0.000582407
0.000423703
0.000310462
0.000230382
0.00017417
0.000134968
0.000107793
8.90743e-05
7.62603e-05
6.75487e-05
6.166e-05
5.77032e-05
5.50606e-05
5.33055e-05
5.21459e-05
5.13832e-05
5.08835e-05
5.0558e-05
5.03546e-05
0.000185217
0.000169657
0.000155994
0.000143978
0.000133386
0.000124024
0.000115725
0.000108343
0.000101753
9.58515e-05
9.05481e-05
8.57681e-05
8.14495e-05
7.75432e-05
7.40167e-05
7.08556e-05
6.80618e-05
6.56661e-05
6.37464e-05
6.24626e-05
6.2133e-05
6.34118e-05
6.77735e-05
7.91118e-05
0.000110068
0.000208953
0.00055705
0.00145007
0.00116012
0.0002
0.0002
0.0002
0.0002
0.0002
0.0002
0.0002
0.0002
0.0002
0.0002
0.0002
0.0028443
0.00171532
0.00267856
0.00382593
0.00475883
0.00520731
0.00514634
0.00472266
0.00404833
0.00334079
0.00266943
0.00207644
0.00158026
0.0011827
0.000874614
0.000642534
0.000471465
0.00034735
0.000258322
0.000194992
0.000150231
0.00011877
9.67723e-05
8.14748e-05
7.08982e-05
6.3631e-05
5.86709e-05
5.53062e-05
5.30382e-05
5.15188e-05
5.05071e-05
4.9837e-05
4.93953e-05
4.91058e-05
4.8922e-05
0.00018521
0.000169635
0.000155946
0.000143891
0.000133247
0.000123819
0.000115438
0.000107961
0.000101264
9.52456e-05
8.98209e-05
8.49203e-05
8.04872e-05
7.6478e-05
7.28636e-05
6.96283e-05
6.67749e-05
6.43345e-05
6.23857e-05
6.10919e-05
6.07839e-05
6.21549e-05
6.68055e-05
7.90995e-05
0.000113837
0.000231213
0.000676194
0.00161881
0.00128491
0.0002
0.0002
0.0002
0.0002
0.0002
0.0002
0.0002
0.0002
0.0002
0.0002
0.0002
0.000160745
0.000581028
0.000974496
0.00141386
0.00194026
0.00240244
0.00268416
0.00273866
0.00256639
0.00222669
0.00184378
0.00147645
0.00114891
0.000877774
0.000661881
0.000495851
0.000371407
0.000279732
0.000212991
0.000164807
0.000130238
0.000105572
8.80671e-05
7.57134e-05
6.70492e-05
6.10132e-05
5.68381e-05
5.39712e-05
5.20165e-05
5.06931e-05
4.98033e-05
4.92088e-05
4.8814e-05
4.85532e-05
4.83853e-05
0.000185207
0.000169628
0.000155931
0.000143865
0.000133206
0.000123759
0.000115356
0.000107852
0.000101126
9.50747e-05
8.96157e-05
8.46803e-05
8.02134e-05
7.61726e-05
7.25288e-05
6.92661e-05
6.6388e-05
6.39257e-05
6.19575e-05
6.06483e-05
6.0333e-05
6.17186e-05
6.64524e-05
7.9085e-05
0.000115383
0.000241798
0.00073957
0.00168281
0.00142156
0.0002
0.0002
0.0002
0.0002
0.0002
0.0002
0.0002
0.0002
0.0002
0.0002
0.0002
0.000647436
0.000406542
0.000606238
0.000867552
0.00118381
0.00152097
0.00178897
0.00192875
0.00190294
0.00171705
0.00144791
0.00117945
0.000927413
0.000715193
0.000546853
0.000415381
0.000315843
0.000241814
0.000187372
0.000147644
0.000118824
9.80289e-05
8.31047e-05
7.24576e-05
6.49121e-05
5.96031e-05
5.5896e-05
5.33278e-05
5.15625e-05
5.03584e-05
4.95432e-05
4.89952e-05
4.86291e-05
4.8386e-05
4.82279e-05
0.00018521
0.000169635
0.000155946
0.000143891
0.000133247
0.000123819
0.000115438
0.00010796
0.000101263
9.52432e-05
8.98166e-05
8.4913e-05
8.0476e-05
7.64619e-05
7.28415e-05
6.95991e-05
6.67379e-05
6.42895e-05
6.23324e-05
6.10307e-05
6.07153e-05
6.20785e-05
6.67138e-05
7.89406e-05
0.000113313
0.000229116
0.000672451
0.00162447
0.00128532
0.0002
0.0002
0.0002
0.0002
0.0002
0.0002
0.0002
0.0002
0.0002
0.0002
0.0002
0.000160745
0.000576185
0.000963969
0.00138016
0.00187298
0.00229779
0.00254992
0.00258812
0.00241641
0.00208151
0.00170425
0.00134922
0.00103894
0.000786852
0.000589506
0.00044008
0.000329578
0.000249068
0.000190946
0.000149221
0.000119382
9.81096e-05
8.29971e-05
7.23046e-05
6.47771e-05
5.95082e-05
5.58441e-05
5.33132e-05
5.15772e-05
5.03948e-05
4.95949e-05
4.90573e-05
4.86981e-05
4.84594e-05
4.83038e-05
0.000185217
0.000169657
0.000155994
0.000143978
0.000133386
0.000124024
0.000115724
0.000108341
0.00010175
9.58448e-05
9.0536e-05
8.5748e-05
8.14186e-05
7.74988e-05
7.39562e-05
7.07769e-05
6.79636e-05
6.5548e-05
6.36089e-05
6.23073e-05
6.1962e-05
6.32249e-05
6.75557e-05
7.87605e-05
0.000109017
0.000204863
0.000548117
0.00145801
0.0011564
0.0002
0.0002
0.0002
0.0002
0.0002
0.0002
0.0002
0.0002
0.0002
0.0002
0.0002
0.00265136
0.00165941
0.00257845
0.00364512
0.00448736
0.00487487
0.00478963
0.00436389
0.00370508
0.00301337
0.00237232
0.00181836
0.00136454
0.00100841
0.000738002
0.000538281
0.000393732
0.000290541
0.00021752
0.000166129
0.000130089
0.000104883
8.73005e-05
7.50738e-05
6.66035e-05
6.07617e-05
5.67538e-05
5.40176e-05
5.21602e-05
5.09064e-05
5.00647e-05
4.95026e-05
4.91289e-05
4.88815e-05
4.8721e-05
0.000185233
0.000169705
0.000156098
0.000144167
0.000133694
0.000124489
0.000116384
0.00010923
0.000102895
9.72615e-05
9.22264e-05
8.76988e-05
8.36015e-05
7.98721e-05
7.64696e-05
7.33876e-05
7.06268e-05
6.82203e-05
6.62472e-05
6.48646e-05
6.43733e-05
6.53671e-05
6.91221e-05
7.87966e-05
0.00010391
0.000178968
0.000433325
0.00118528
0.00228464
0.00210816
0.0002
0.0002
0.0002
0.0002
0.0002
0.0002
0.0002
0.0002
0.0002
0.0002
0.00482705
0.00616279
0.00875355
0.0103065
0.0104704
0.00962393
0.00819284
0.00669145
0.00530572
0.00411242
0.00312752
0.00234003
0.00172657
0.00125969
0.000911983
0.000658044
0.00047554
0.000345974
0.000254807
0.000191077
0.000146745
0.000116033
9.48373e-05
8.02708e-05
7.03035e-05
6.35185e-05
5.89178e-05
5.58136e-05
5.37294e-05
5.23366e-05
5.14097e-05
5.07954e-05
5.03896e-05
5.01226e-05
4.99506e-05
0.000185264
0.000169803
0.000156315
0.000144575
0.000134378
0.000125542
0.000117897
0.000111279
0.000105532
0.000100505
9.60586e-05
9.20665e-05
8.8419e-05
8.5027e-05
8.18309e-05
7.88471e-05
7.608e-05
7.35665e-05
7.13897e-05
6.97051e-05
6.87951e-05
6.91886e-05
7.19593e-05
7.95957e-05
9.90725e-05
0.000154241
0.000331963
0.000864428
0.00177362
0.00150259
0.00475121
0.0002
0.0002
0.0002
0.0002
0.0002
0.0002
0.0002
0.0002
0.0271055
0.017299
0.0237711
0.0255339
0.0231059
0.0190669
0.0150282
0.0115253
0.00871091
0.00654362
0.00489298
0.00364132
0.00269472
0.00198107
0.00144636
0.00104963
0.000759199
0.000549177
0.000399018
0.000292691
0.000218017
0.000165945
0.000129865
0.000105016
8.80062e-05
7.644e-05
6.86061e-05
6.33303e-05
5.97958e-05
5.74388e-05
5.58736e-05
5.4838e-05
5.4155e-05
5.37056e-05
5.34113e-05
5.32232e-05
0.00018533
0.000170018
0.000156812
0.000145536
0.00013602
0.00012809
0.000121552
0.000116189
0.000111764
0.000108042
0.000104806
0.000101859
9.90323e-05
9.61942e-05
9.32582e-05
9.02776e-05
8.73041e-05
8.43867e-05
8.16228e-05
7.91758e-05
7.73189e-05
7.65253e-05
7.7683e-05
8.26838e-05
9.63682e-05
0.000134058
0.00025038
0.000602358
0.00129563
0.00198834
0.00118956
0.00321022
0.0002
0.0002
0.0002
0.0002
0.0002
0.000292946
0.0292448
0.0325471
0.0473108
0.0508276
0.0427792
0.0328244
0.0241488
0.0174788
0.0126428
0.00919397
0.00678485
0.00505541
0.0037845
0.00283195
0.0021096
0.00156067
0.00114578
0.000837287
0.000610688
0.000446543
0.000329095
0.000245966
0.000187688
0.000147187
0.000119303
0.00010023
8.72531e-05
7.84861e-05
7.25982e-05
6.86643e-05
6.60476e-05
6.43137e-05
6.31688e-05
6.24151e-05
6.19203e-05
6.15972e-05
6.13928e-05
0.000185479
0.000170545
0.000158079
0.000148026
0.000140269
0.000134598
0.000130706
0.000128199
0.000126637
0.000125606
0.000124743
0.000123731
0.000122313
0.000120308
0.000117601
0.000114319
0.000110679
0.000106751
0.000102671
9.8614e-05
9.48679e-05
9.18912e-05
9.04447e-05
9.19639e-05
9.96915e-05
0.000122822
0.000192402
0.000404246
0.000887027
0.00145365
0.00177453
0.0013001
0.00204429
0.003323
0.00622343
0.0101473
0.00952028
0.0078061
0.0335356
0.0509905
0.0533994
0.046236
0.0359033
0.0265544
0.0193248
0.0140907
0.0104404
0.0079351
0.00614237
0.00479649
0.00374251
0.00289616
0.00221314
0.00166807
0.00124225
0.000917495
0.000675326
0.000498204
0.000370767
0.000280356
0.000217033
0.000173164
0.000142955
0.000122317
0.000108319
9.88842e-05
9.25586e-05
8.83374e-05
8.55323e-05
8.36753e-05
8.24506e-05
8.16462e-05
8.11198e-05
8.07791e-05
8.05645e-05
0.000185865
0.000171988
0.000161598
0.00015487
0.000151673
0.000151549
0.00015379
0.000157543
0.000161925
0.000166197
0.000169752
0.000172104
0.000172924
0.000172029
0.000169367
0.000165215
0.000160027
0.000153911
0.000147058
0.000139785
0.00013248
0.000125656
0.000120045
0.000116808
0.000118139
0.000129332
0.000166435
0.000279457
0.000567081
0.00102248
0.00139794
0.00153142
0.00192143
0.00347738
0.00722276
0.0125371
0.0163873
0.0189485
0.0212893
0.0217055
0.0202242
0.0176836
0.0149677
0.0125602
0.0105994
0.00903376
0.00778846
0.00674631
0.00577406
0.00484302
0.00396157
0.00315539
0.00245025
0.00186211
0.00139277
0.00103213
0.000763509
0.000568383
0.00042946
0.000332335
0.000264985
0.000218653
0.000187043
0.000165617
0.000151172
0.000141481
0.000135006
0.000130697
0.000127843
0.000125962
0.000124729
0.000123926
0.000123408
0.000123082
0.000122887
0.000186976
0.000176244
0.000171804
0.000174052
0.000182495
0.000195686
0.000211732
0.000228727
0.000244953
0.000259125
0.000270188
0.00027765
0.000281309
0.000281168
0.000277375
0.00027068
0.000261782
0.000251018
0.000238798
0.000225654
0.000212272
0.000199266
0.00018746
0.000177943
0.000172357
0.000173829
0.000190198
0.000244199
0.000388373
0.000670891
0.00101975
0.00130186
0.00153287
0.00182538
0.00228172
0.00261952
0.00309474
0.00370789
0.00448458
0.00534782
0.00623772
0.00711142
0.00793486
0.00859667
0.00897764
0.00900835
0.00867232
0.00800197
0.00707292
0.00599385
0.00488175
0.00383626
0.00292621
0.00218404
0.00161031
0.00118498
0.000879545
0.000665716
0.000518364
0.000417502
0.000349053
0.000302796
0.00027169
0.000250836
0.0002369
0.000227617
0.00022146
0.0002174
0.000214742
0.000213018
0.000211914
0.000211219
0.000210792
0.000210544
0.000210413
0.000190453
0.000189177
0.000201562
0.000228039
0.000266243
0.000310893
0.000356938
0.000400185
0.000438133
0.000469087
0.000491255
0.000504491
0.000509181
0.000506138
0.000496626
0.000482802
0.000465267
0.000445093
0.000423299
0.000400862
0.000378702
0.000357755
0.000339031
0.000323719
0.000313355
0.000310212
0.000318495
0.000348056
0.000421535
0.000571347
0.000802174
0.00106967
0.00131927
0.00152569
0.00170092
0.00187998
0.0023817
0.00337071
0.00493211
0.0069915
0.00934396
0.0116749
0.0136372
0.0149478
0.0154334
0.0150652
0.0139503
0.0122823
0.0102969
0.00824116
0.00632884
0.00470206
0.00341746
0.0024621
0.00178287
0.00131497
0.00099962
0.000789156
0.000649604
0.000556859
0.000495054
0.000454105
0.000426957
0.000408986
0.000397145
0.000389404
0.000384398
0.000381212
0.000379225
0.000378023
0.000377328
0.000376957
0.000376789
0.000376752
0.00037678
0.000201554
0.000227218
0.000289107
0.000383279
0.000496845
0.000612761
0.000720768
0.000811258
0.000880479
0.000927266
0.000952336
0.000958292
0.000948702
0.00092761
0.00089946
0.000867136
0.000832532
0.000798012
0.000765297
0.000735739
0.000710482
0.00069074
0.000678031
0.000674401
0.000682675
0.000706789
0.000752365
0.00082809
0.000948488
0.0011357
0.00141208
0.00179315
0.00229084
0.00293194
0.00381867
0.00546501
0.00836844
0.0125739
0.017773
0.0233038
0.0283516
0.0320856
0.0338931
0.0336045
0.0313841
0.0276763
0.0230829
0.0182425
0.0137121
0.00988454
0.0069231
0.00479036
0.00333348
0.00237299
0.00175272
0.00135633
0.00110301
0.000940493
0.00083576
0.000767985
0.000724074
0.000695641
0.000677406
0.000665908
0.000658875
0.000654772
0.000652542
0.000651492
0.000651164
0.000651252
0.000651562
0.000651975
0.00065242
0.000652857
0.00065323
0.000234958
0.00034092
0.000560113
0.000848706
0.00114977
0.00140016
0.00158721
0.00170765
0.00176633
0.00177411
0.00174438
0.00169043
0.00162375
0.00155369
0.00148722
0.00142707
0.0013771
0.00133989
0.00131737
0.00131166
0.00132565
0.00136374
0.00143267
0.00154279
0.00170972
0.00195675
0.0023182
0.00284419
0.00360709
0.00470887
0.00628102
0.00854352
0.0118416
0.0165634
0.0235562
0.0341478
0.0475412
0.0623603
0.0761734
0.0863312
0.090785
0.0885739
0.0802538
0.0678265
0.0536308
0.0398284
0.0279714
0.0187988
0.0122895
0.00797361
0.0052463
0.00357129
0.00254993
0.00192901
0.00155345
0.00132488
0.00118398
0.00109842
0.00104745
0.00101818
0.00100232
0.000994652
0.000991876
0.000992036
0.000994023
0.000997032
0.00100037
0.00100368
0.00100677
0.00100952
0.00101189
0.00101388
0.00101554
0.00101689
0.0010179
0.000330321
0.000721789
0.00149068
0.00224175
0.00273019
0.00297805
0.00304379
0.00298893
0.00286517
0.0027091
0.00254476
0.00238775
0.00224768
0.00213046
0.00204022
0.00197932
0.00195057
0.00195753
0.002006
0.00210568
0.00227237
0.00253152
0.00292406
0.00351589
0.00441337
0.00578766
0.00791175
0.0112128
0.0163368
0.0242027
0.0357558
0.0528877
0.0786259
0.114014
0.157733
0.203123
0.245027
0.273511
0.280803
0.263737
0.225691
0.174188
0.120156
0.0766832
0.046793
0.0281107
0.0169873
0.0104624
0.00662761
0.00435736
0.00300858
0.00220729
0.00173251
0.00145249
0.00129092
0.0012028
0.0011606
0.00114758
0.00115261
0.00116799
0.00118829
0.00120945
0.00122841
0.00124441
0.00125892
0.00127179
0.0012831
0.00129275
0.00130078
0.00130735
0.00131266
0.0013169
0.00132026
0.00132288
0.00132479
)
;

boundaryField
{
    ibCylinder
    {
        type            immersedBoundaryEpsilonWallFunction;
        patchType       immersedBoundary;
        blending        stepwise;
        setDeadValue    true;
        deadValue       0.0002;
        value           nonuniform List<scalar> 0();
    }
    in
    {
        type            fixedValue;
        value           uniform 0.0002;
    }
    out
    {
        type            inletOutlet;
        inletValue      uniform 0.0002;
        value           nonuniform List<scalar> 
25
(
0.00133164
0.00102356
0.000658013
0.000381004
0.000213984
0.000125652
8.2516e-05
6.26502e-05
5.39655e-05
5.03546e-05
4.8922e-05
4.83853e-05
4.82279e-05
4.83038e-05
4.8721e-05
4.99506e-05
5.32232e-05
6.13928e-05
8.05645e-05
0.000122887
0.000210413
0.00037678
0.00065323
0.0010179
0.00132479
)
;
    }
    top
    {
        type            zeroGradient;
    }
    bottom
    {
        type            zeroGradient;
    }
    frontAndBack
    {
        type            empty;
    }
}


// ************************************************************************* //
