/*--------------------------------*- C++ -*----------------------------------*\
| =========                 |                                                 |
| \\      /  F ield         | OpenFOAM: The Open Source CFD Toolbox           |
|  \\    /   O peration     | Version:  2206                                  |
|   \\  /    A nd           | Website:  www.openfoam.com                      |
|    \\/     M anipulation  |                                                 |
\*---------------------------------------------------------------------------*/
FoamFile
{
    version     2.0;
    format      ascii;
    arch        "LSB;label=32;scalar=64";
    class       volScalarField;
    location    "0.9";
    object      k;
}
// * * * * * * * * * * * * * * * * * * * * * * * * * * * * * * * * * * * * * //

dimensions      [0 2 -2 0 0 0 0];

internalField   nonuniform List<scalar> 
1875
(
0.000201147
0.00032222
0.00052742
0.00072904
0.000883816
0.000994646
0.00106662
0.00110603
0.00112008
0.00111569
0.00109907
0.00107564
0.00104983
0.00102517
0.00100456
0.000990132
0.00098392
0.000987873
0.0010043
0.00103627
0.0010881
0.00116592
0.00127854
0.00143854
0.00166373
0.00197888
0.00241773
0.0030251
0.00385834
0.0049865
0.00645224
0.00839618
0.0110415
0.0143974
0.0183257
0.0223094
0.0260641
0.0289261
0.0302887
0.0297171
0.0271519
0.0228794
0.0176314
0.0127338
0.00883879
0.00603972
0.0041433
0.00289472
0.00208293
0.00155769
0.00122001
0.00100469
0.000868756
0.000783963
0.00073273
0.000703907
0.000690021
0.000686177
0.000688788
0.000695201
0.000703425
0.000711919
0.000719503
0.000725904
0.000731718
0.000736886
0.000741441
0.000745331
0.000748577
0.000751241
0.000753395
0.000755115
0.000756474
0.000757522
0.000758266
0.000164184
0.000198011
0.000263003
0.000349823
0.000447055
0.000538734
0.000620085
0.000687055
0.000737315
0.000770736
0.000788953
0.000794745
0.000791325
0.00078195
0.000769492
0.000755364
0.000741686
0.000730056
0.000721698
0.000717697
0.000719163
0.000727388
0.000744015
0.000771192
0.000811735
0.000869281
0.000948493
0.00105545
0.00119832
0.00138805
0.0016376
0.00196756
0.00240918
0.00299781
0.0038213
0.00502019
0.00652258
0.00822572
0.00992459
0.0113637
0.012296
0.0125332
0.0120128
0.0108517
0.00926236
0.00749828
0.00579676
0.00432909
0.00317269
0.00232496
0.00173583
0.00134051
0.00107874
0.000906875
0.000795136
0.000722421
0.000674663
0.000643962
0.00062468
0.000613034
0.000606388
0.000602968
0.000601576
0.000601458
0.000602161
0.000603349
0.000604723
0.000606122
0.000607449
0.000608643
0.000609682
0.000610564
0.000611301
0.000611899
0.000612337
0.000150993
0.000159264
0.000178271
0.000207984
0.000246275
0.000289215
0.000333868
0.000376571
0.000414995
0.00044736
0.000472469
0.000489972
0.000500178
0.000503933
0.000502613
0.000497153
0.00048829
0.000477182
0.000464795
0.000451951
0.000439357
0.000427692
0.000417676
0.000410141
0.000406094
0.000406823
0.000414127
0.000430953
0.000462584
0.000517026
0.000600386
0.000710243
0.00083615
0.000968941
0.00111497
0.0013416
0.001725
0.00228455
0.00299992
0.00380759
0.00461495
0.0053104
0.00578879
0.00598667
0.00588221
0.00549913
0.00489918
0.00416956
0.00340509
0.00269113
0.00208406
0.00160534
0.00124841
0.000992488
0.000813658
0.000690485
0.000605777
0.000547527
0.000507476
0.000479974
0.000461182
0.000448428
0.000439911
0.000434347
0.000430834
0.000428721
0.000427539
0.00042696
0.000426762
0.000426788
0.000426939
0.000427149
0.000427382
0.000427613
0.000427801
0.000146361
0.000145482
0.000148926
0.000157061
0.00016984
0.000186222
0.000204934
0.000224619
0.000244192
0.000262598
0.000278566
0.000291423
0.000300725
0.000306285
0.000308224
0.000307215
0.000303295
0.000296878
0.000288438
0.000278507
0.000267649
0.000256478
0.000245682
0.000236085
0.000228758
0.0002253
0.000228624
0.000245029
0.000287654
0.000375183
0.000512166
0.000672725
0.0008195
0.000929015
0.000995748
0.0010164
0.00107255
0.00119693
0.0014104
0.00171287
0.0020853
0.0024895
0.00287401
0.00318563
0.00337937
0.00342844
0.00332882
0.00309652
0.00276306
0.00237141
0.0019675
0.00159038
0.00126514
0.00100183
0.000798715
0.000647522
0.000538023
0.000459745
0.000404276
0.000365009
0.000337259
0.000317864
0.000304374
0.000295058
0.000288692
0.000284398
0.00028155
0.000279698
0.000278524
0.000277806
0.000277389
0.000277166
0.000277068
0.000277049
0.000277065
0.000144825
0.000140361
0.000138099
0.000138142
0.000140477
0.000144897
0.000151009
0.000158304
0.000166182
0.000174065
0.000181339
0.000187562
0.000192373
0.00019549
0.00019672
0.00019621
0.00019415
0.000190598
0.000185699
0.000179718
0.000173065
0.000166175
0.000159673
0.000154441
0.000151861
0.000154514
0.000168239
0.000207439
0.000302113
0.000483824
0.000725199
0.000949419
0.00113239
0.00131613
0.00153483
0.00165074
0.00177947
0.00191545
0.00205839
0.00218161
0.00227936
0.00236379
0.00244776
0.00252147
0.00256612
0.00256464
0.00250391
0.00237785
0.00218966
0.00195295
0.0016885
0.00141907
0.00116497
0.000940591
0.000753014
0.000602968
0.000487089
0.00040024
0.000336505
0.000290186
0.000256886
0.000233123
0.000216309
0.000204494
0.000196254
0.000190549
0.000186634
0.000183973
0.000182185
0.000180999
0.000180225
0.000179729
0.00017942
0.000179239
0.000179141
0.000144303
0.000138517
0.00013399
0.000130796
0.000128912
0.000128247
0.00012865
0.000129903
0.000131739
0.000133886
0.000136067
0.000138003
0.000139442
0.000140179
0.000140057
0.000139107
0.000137485
0.000135181
0.000132252
0.000128867
0.000125279
0.000121875
0.000119266
0.000118475
0.000121439
0.000132499
0.000162936
0.000242194
0.000424805
0.000725732
0.0010449
0.00127514
0.00152247
0.00228099
0.00386547
0.00567821
0.00678973
0.00748056
0.00820047
0.00825037
0.00765239
0.00669691
0.00566572
0.00472696
0.00394658
0.00332756
0.00284903
0.00247128
0.00214654
0.00185223
0.00157815
0.00132316
0.00109086
0.00088605
0.000711875
0.00056875
0.000454702
0.000366222
0.000299143
0.000249391
0.000212972
0.000186578
0.000167644
0.000154181
0.000144684
0.000138035
0.000133413
0.000130223
0.000128037
0.000126551
0.000125548
0.000124879
0.000124436
0.000124152
0.00012398
0.000144109
0.000137832
0.000132413
0.000127877
0.000124204
0.000121343
0.000119213
0.0001177
0.000116667
0.000115972
0.000115476
0.000115032
0.000114498
0.00011375
0.000112679
0.000111313
0.00010974
0.000107979
0.0001061
0.000104216
0.000102548
0.000101485
0.000101712
0.000104539
0.000112808
0.000133695
0.000187475
0.00032709
0.000624058
0.00103122
0.00143365
0.00158808
0.00163119
0.00177426
0.0026348
0.00408923
0.00507674
0.00647017
0.0164204
0.020778
0.0202282
0.0172794
0.0135951
0.0102825
0.00766288
0.00571369
0.00431594
0.00333449
0.00262894
0.00210389
0.00169717
0.00137086
0.00110326
0.000882484
0.000701728
0.000555977
0.000440531
0.000350715
0.000282029
0.000230339
0.000192032
0.00016404
0.000143781
0.000129252
0.000118923
0.000111637
0.000106534
0.000102985
0.000100531
9.88458e-05
9.76949e-05
9.69138e-05
9.63872e-05
9.60375e-05
9.58172e-05
0.000144029
0.000137559
0.000131785
0.000126691
0.000122247
0.000118412
0.000115131
0.000112337
0.000109951
0.000107892
0.000106078
0.000104432
0.000102876
0.000101343
9.97821e-05
9.82138e-05
9.66684e-05
9.51806e-05
9.38252e-05
9.27383e-05
9.21624e-05
9.2536e-05
9.46929e-05
0.000100368
0.000113672
0.000145893
0.000230482
0.000450408
0.000871138
0.00143707
0.00133581
0.00123967
0.00015
0.00015
0.00015
0.00015
0.00015
0.00804477
0.0121348
0.0153553
0.0197571
0.02012
0.0168472
0.0131131
0.00988979
0.00736938
0.00549068
0.00411523
0.00312875
0.00240909
0.00187399
0.00146728
0.00115204
0.000904482
0.000709018
0.000555764
0.000436431
0.000344534
0.000274587
0.000221966
0.000182826
0.000154026
0.000133068
0.00011796
0.000107152
9.94815e-05
9.40769e-05
9.02946e-05
8.76644e-05
8.5846e-05
8.45958e-05
8.3741e-05
8.31596e-05
8.27688e-05
8.25225e-05
0.000143992
0.00013744
0.000131517
0.000126185
0.000121405
0.000117133
0.000113323
0.000109926
0.00010689
0.000104162
0.000101695
9.94401e-05
9.73551e-05
9.54036e-05
9.35624e-05
9.185e-05
9.02836e-05
8.8905e-05
8.77969e-05
8.71101e-05
8.71191e-05
8.8337e-05
9.17873e-05
9.97257e-05
0.000117862
0.00016284
0.000285147
0.000605189
0.00116079
0.00142677
0.00121283
0.00015
0.00015
0.00015
0.00015
0.00015
0.00015
0.00015
0.00015
0.00961528
0.00964793
0.0113525
0.0113103
0.00990798
0.00824439
0.00663142
0.00522188
0.00406828
0.00316001
0.00245499
0.00190988
0.00148768
0.00115923
0.000902889
0.000702908
0.000547741
0.000428194
0.000336878
0.00026774
0.000215856
0.000177256
0.000148781
0.000127949
0.000112834
0.000101958
9.41879e-05
8.86749e-05
8.479e-05
8.20699e-05
8.0177e-05
7.88673e-05
7.79661e-05
7.73493e-05
7.69316e-05
7.66673e-05
0.000143974
0.000137384
0.000131392
0.000125954
0.000121022
0.000116551
0.000112495
0.000108813
0.000105461
0.000102403
9.9603e-05
9.70313e-05
9.46616e-05
9.2474e-05
9.04593e-05
8.86291e-05
8.70036e-05
8.56288e-05
8.45936e-05
8.40624e-05
8.43402e-05
8.60161e-05
9.03094e-05
0.000100033
0.00012269
0.000181234
0.000348245
0.000792057
0.00146497
0.00121914
0.00015
0.00015
0.00015
0.00015
0.00015
0.00015
0.00015
0.00015
0.00015
0.00015
0.00395352
0.00396878
0.00466234
0.0050639
0.00499743
0.00455549
0.00391821
0.00327788
0.00268397
0.00216621
0.00172997
0.00137052
0.00107893
0.000845449
0.000660795
0.000516554
0.00040517
0.000320028
0.000255514
0.000207012
0.000170809
0.000143973
0.000124213
0.000109768
9.92815e-05
9.17242e-05
8.63145e-05
8.24684e-05
7.97521e-05
7.7846e-05
7.65169e-05
7.55955e-05
7.49606e-05
7.45276e-05
7.42523e-05
0.000143965
0.000137356
0.000131331
0.000125842
0.000120839
0.000116275
0.000112105
0.000108287
0.000104783
0.000101562
9.85941e-05
9.58574e-05
9.33332e-05
9.10093e-05
8.88824e-05
8.69614e-05
8.52686e-05
8.3852e-05
8.28044e-05
8.22995e-05
8.26671e-05
8.45593e-05
8.93651e-05
0.000100408
0.000126937
0.000198852
0.000419161
0.000991713
0.0012458
0.00015
0.00015
0.00015
0.00015
0.00015
0.00015
0.00015
0.00015
0.00015
0.00015
0.00015
0.00166659
0.00154938
0.00175195
0.00215505
0.0024848
0.00260958
0.00253183
0.00231526
0.00200837
0.0017015
0.00141122
0.00115056
0.000925719
0.000737989
0.000585087
0.000463247
0.000367823
0.000294067
0.000237634
0.000194805
0.000162527
0.000138361
0.000120383
0.000107097
9.73458e-05
9.02391e-05
8.50974e-05
8.14036e-05
7.87686e-05
7.69021e-05
7.55888e-05
7.4671e-05
7.40337e-05
7.35959e-05
7.3316e-05
0.000143961
0.000137343
0.000131303
0.00012579
0.000120755
0.000116149
0.000111927
0.000108048
0.000104476
0.000101179
9.81333e-05
9.53173e-05
9.27162e-05
9.03206e-05
8.81296e-05
8.61509e-05
8.44073e-05
8.29475e-05
8.18657e-05
8.1341e-05
8.17183e-05
8.36911e-05
8.87645e-05
0.000100627
0.00012993
0.00021359
0.000492983
0.00111625
0.00110862
0.00015
0.00015
0.00015
0.00015
0.00015
0.00015
0.00015
0.00015
0.00015
0.00015
0.00015
0.00068981
0.000766167
0.000848907
0.00102314
0.00125888
0.0014559
0.00156009
0.0015588
0.00146194
0.00129448
0.00111293
0.000935651
0.000771213
0.000628079
0.000507449
0.000408809
0.000329982
0.000268005
0.000219855
0.000182792
0.000154484
0.000133017
0.000116849
0.000104759
9.57836e-05
8.91711e-05
8.43369e-05
8.08302e-05
7.83058e-05
7.65022e-05
7.52231e-05
7.43225e-05
7.36928e-05
7.32576e-05
7.29778e-05
0.00014396
0.000137339
0.000131294
0.000125774
0.00012073
0.000116112
0.000111875
0.000107978
0.000104386
0.000101068
9.79988e-05
9.5159e-05
9.25344e-05
9.01164e-05
8.79036e-05
8.59039e-05
8.41403e-05
8.26614e-05
8.15617e-05
8.1022e-05
8.1392e-05
8.33798e-05
8.85337e-05
0.000100687
0.000131108
0.000220189
0.000527264
0.00112957
0.00108347
0.00015
0.00015
0.00015
0.00015
0.00015
0.00015
0.00015
0.00015
0.00015
0.00015
0.00015
0.000519646
0.000555991
0.00063149
0.000739545
0.000901371
0.00107401
0.00120103
0.00125621
0.00122827
0.00112479
0.000984375
0.000842214
0.000701856
0.000576475
0.00047058
0.000382394
0.000311184
0.000254746
0.000210586
0.000176373
0.00015008
0.000130022
0.000114829
0.000103405
9.48794e-05
8.85654e-05
8.39264e-05
8.05449e-05
7.80996e-05
7.63449e-05
7.50951e-05
7.42116e-05
7.35915e-05
7.31613e-05
7.28839e-05
0.000143961
0.000137343
0.000131303
0.00012579
0.000120755
0.000116149
0.000111927
0.000108048
0.000104475
0.000101179
9.81318e-05
9.53147e-05
9.2712e-05
9.03143e-05
8.81207e-05
8.61388e-05
8.43918e-05
8.29284e-05
8.1843e-05
8.1315e-05
8.16898e-05
8.36611e-05
8.87357e-05
0.000100611
0.000130001
0.000214155
0.000495249
0.00111954
0.00111078
0.00015
0.00015
0.00015
0.00015
0.00015
0.00015
0.00015
0.00015
0.00015
0.00015
0.00015
0.000671319
0.000746606
0.000828713
0.00100248
0.00123999
0.0014432
0.00155629
0.00156324
0.00147146
0.00130515
0.00112144
0.000940525
0.000772318
0.000626196
0.000503561
0.000403905
0.000324854
0.000263183
0.000215633
0.000179285
0.000151689
0.000130863
0.000115236
0.000103581
9.4941e-05
8.85792e-05
8.39267e-05
8.05482e-05
7.8112e-05
7.63677e-05
7.51274e-05
7.42515e-05
7.36372e-05
7.32111e-05
7.29363e-05
0.000143965
0.000137356
0.000131331
0.000125842
0.000120839
0.000116275
0.000112105
0.000108286
0.000104782
0.00010156
9.85901e-05
9.58503e-05
9.33217e-05
9.0992e-05
8.88579e-05
8.69285e-05
8.52266e-05
8.38008e-05
8.27443e-05
8.22317e-05
8.25937e-05
8.44834e-05
8.92924e-05
0.000100357
0.000127024
0.000199729
0.000422824
0.000997052
0.00124492
0.00015
0.00015
0.00015
0.00015
0.00015
0.00015
0.00015
0.00015
0.00015
0.00015
0.00015
0.00159101
0.00148455
0.00168595
0.00209088
0.0024344
0.00258164
0.00252627
0.0023254
0.00202561
0.00171776
0.0014226
0.00115573
0.000925129
0.000733012
0.000577357
0.000454274
0.000358775
0.000285709
0.000230377
0.000188795
0.000157737
0.000134662
0.000117603
0.000105056
9.58763e-05
8.9197e-05
8.43653e-05
8.08903e-05
7.84059e-05
7.66402e-05
7.53928e-05
7.45167e-05
7.3905e-05
7.34824e-05
7.32106e-05
0.000143974
0.000137384
0.000131392
0.000125954
0.000121022
0.000116551
0.000112496
0.000108812
0.00010546
0.000102399
9.95949e-05
9.70163e-05
9.46365e-05
9.24357e-05
9.04049e-05
8.85563e-05
8.6911e-05
8.55164e-05
8.44631e-05
8.3917e-05
8.41849e-05
8.58577e-05
9.01571e-05
9.99086e-05
0.000122704
0.000182043
0.000352102
0.000798426
0.00146043
0.0012429
0.00015
0.00015
0.00015
0.00015
0.00015
0.00015
0.00015
0.00015
0.00015
0.00015
0.00375844
0.00377331
0.00445734
0.0048997
0.00489403
0.00451008
0.00391259
0.00329105
0.00270201
0.00218091
0.00173777
0.00137092
0.00107318
0.00083547
0.000648568
0.000503738
0.000392951
0.000309122
0.000246251
0.00019945
0.000164833
0.000139379
0.000120763
0.000107226
9.74351e-05
9.03938e-05
8.5356e-05
8.17706e-05
7.92323e-05
7.74447e-05
7.6192e-05
7.53186e-05
7.47127e-05
7.42965e-05
7.40296e-05
0.000143992
0.00013744
0.000131517
0.000126185
0.000121405
0.000117134
0.000113324
0.000109927
0.000106889
0.000104158
0.000101682
9.94127e-05
9.73071e-05
9.53283e-05
9.34541e-05
9.17042e-05
9.00982e-05
8.86808e-05
8.75378e-05
8.68234e-05
8.68148e-05
8.80282e-05
9.14895e-05
9.94623e-05
0.000117718
0.00016331
0.000288125
0.000610654
0.00115491
0.0014069
0.00126367
0.00015
0.00015
0.00015
0.00015
0.00015
0.00015
0.00015
0.00015
0.00911235
0.00917314
0.0107847
0.0108158
0.00959611
0.00807449
0.00655486
0.00519782
0.00406813
0.00316666
0.00245927
0.00190816
0.00147969
0.00114639
0.000887168
0.000686201
0.000531551
0.000413506
0.000324209
0.000257242
0.000207436
0.000170682
0.000143761
0.000124182
0.000110038
9.98934e-05
9.26558e-05
8.75213e-05
8.38981e-05
8.13541e-05
7.95765e-05
7.834e-05
7.74837e-05
7.68933e-05
7.64901e-05
7.62324e-05
0.000144029
0.000137559
0.000131785
0.000126691
0.000122249
0.000118415
0.000115137
0.000112344
0.000109957
0.00010789
0.000106062
0.000104389
0.000102793
0.000101208
9.95836e-05
9.79446e-05
9.63252e-05
9.47657e-05
9.33468e-05
9.22101e-05
9.16029e-05
9.19673e-05
9.41395e-05
9.98577e-05
0.000113265
0.000145883
0.000232097
0.000454193
0.00086851
0.00141303
0.00132778
0.0013553
0.00015
0.00015
0.00015
0.00015
0.00015
0.0075585
0.0116902
0.0148652
0.0188385
0.0191961
0.0161772
0.0126951
0.00965485
0.00725004
0.00543672
0.00409282
0.00311885
0.00240099
0.00186299
0.00145235
0.00113406
0.000885015
0.000689622
0.000537717
0.000420511
0.000331085
0.000263619
0.000213274
0.000176087
0.000148885
0.00012918
0.000115021
0.000104909
9.77349e-05
9.26758e-05
8.91274e-05
8.66511e-05
8.4931e-05
8.37416e-05
8.29228e-05
8.23616e-05
8.19807e-05
8.17377e-05
0.000144109
0.000137832
0.000132414
0.000127879
0.000124209
0.000121354
0.000119231
0.000117723
0.000116691
0.000115986
0.000115463
0.000114971
0.000114366
0.000113523
0.000112339
0.000110848
0.000109146
0.000107263
0.000105277
0.00010331
0.000101589
0.000100507
0.00010075
0.00010363
0.000111995
0.000133131
0.000187803
0.000328971
0.000622809
0.00101808
0.00140585
0.00155324
0.0015911
0.00173247
0.00254766
0.00393845
0.00487945
0.00626511
0.0158878
0.0199821
0.0194358
0.0165987
0.0130988
0.00996326
0.00747772
0.00561539
0.00426712
0.00331052
0.00261453
0.00209073
0.00168175
0.00135253
0.00108291
0.000861521
0.000681546
0.000537632
0.000424635
0.000337472
0.000271338
0.000221912
0.000185496
0.000159003
0.000139886
0.000126198
0.00011647
0.000109601
0.000104781
0.000101417
9.90819e-05
9.74692e-05
9.63612e-05
9.56041e-05
9.50894e-05
9.4744e-05
9.45228e-05
0.000144303
0.000138517
0.000133992
0.000130802
0.000128927
0.000128277
0.000128697
0.000129966
0.000131807
0.000133938
0.000136071
0.000137921
0.000139234
0.000139807
0.000139496
0.000138342
0.000136515
0.000134021
0.000130931
0.000127425
0.00012376
0.000120327
0.000117735
0.000117001
0.00012006
0.000131288
0.000162171
0.000242299
0.000423746
0.000717413
0.00102817
0.00125284
0.00148213
0.0021813
0.00365059
0.00537222
0.00645986
0.0071649
0.00791868
0.00800692
0.00744806
0.00653641
0.00555295
0.00465716
0.00390862
0.00330855
0.00283893
0.00246351
0.00213661
0.00183832
0.00156033
0.00130259
0.00106911
0.000864659
0.000692054
0.000551276
0.000439917
0.000354117
0.000289472
0.000241781
0.000207001
0.000181857
0.00016384
0.000151029
0.000141981
0.000135633
0.000131206
0.000128139
0.000126027
0.000124583
0.000123603
0.000122944
0.000122505
0.000122219
0.000122041
0.000144825
0.000140362
0.000138105
0.000138159
0.000140516
0.000144969
0.000151119
0.000158445
0.000166332
0.00017418
0.000181363
0.000187431
0.000192024
0.000194874
0.000195804
0.000194986
0.000192631
0.000188818
0.000183708
0.000177576
0.000170835
0.000163914
0.000157433
0.000152261
0.000149773
0.000152549
0.000166499
0.000206134
0.000300643
0.000479099
0.00071469
0.000934066
0.00111113
0.00128552
0.00149444
0.00161173
0.00174098
0.00187948
0.00202977
0.00216415
0.00227427
0.00236808
0.00245832
0.00253507
0.00257914
0.00257378
0.00250685
0.00237362
0.00217864
0.00193651
0.00166855
0.00139753
0.00114356
0.00092063
0.00073535
0.000587986
0.000474788
0.000390371
0.000328661
0.000283922
0.000251806
0.000228894
0.000212673
0.000201259
0.00019328
0.000187739
0.000183923
0.000181318
0.000179559
0.000178386
0.000177615
0.000177117
0.000176803
0.000176615
0.000176507
0.000146361
0.000145487
0.000148943
0.000157105
0.000169933
0.000186382
0.000205163
0.000224895
0.000244463
0.00026278
0.000278563
0.000291136
0.000300073
0.000305215
0.000306718
0.000305287
0.000300993
0.000294268
0.000285598
0.000275516
0.000264577
0.000253384
0.000242611
0.000233065
0.000225807
0.000222427
0.000225861
0.000242469
0.000285268
0.000372213
0.000507545
0.000666252
0.000811865
0.000921775
0.000991733
0.00101928
0.00108147
0.00121095
0.00142907
0.00173595
0.00211261
0.00252009
0.00290603
0.00321642
0.00340568
0.00344728
0.00333838
0.00309659
0.00275485
0.00235712
0.00194975
0.00157165
0.00124735
0.000986135
0.000785553
0.000636841
0.000529484
0.000452877
0.000398646
0.000360258
0.00033311
0.000314115
0.000300881
0.00029172
0.00028544
0.00028119
0.000278358
0.000276507
0.000275326
0.000274597
0.000274167
0.000273933
0.000273824
0.000273796
0.0002738
0.000150996
0.000159276
0.000178316
0.000208093
0.000246488
0.000289551
0.000334309
0.000377047
0.000415387
0.000447519
0.000472246
0.000489246
0.000498879
0.000502048
0.000500176
0.000494234
0.000484984
0.000473587
0.000461
0.00044803
0.000435367
0.000423669
0.00041364
0.000406095
0.000402034
0.000402742
0.000410033
0.000426901
0.000458686
0.000513399
0.000597265
0.000708278
0.000836355
0.000972406
0.0011228
0.00135482
0.00174389
0.00231
0.00303348
0.00385105
0.00466972
0.00537558
0.00585998
0.00605644
0.005942
0.00554213
0.00492264
0.00417525
0.00339799
0.00267724
0.00206832
0.00159078
0.00123625
0.000982809
0.000806063
0.000684417
0.000600735
0.000543151
0.000503512
0.000476255
0.000457597
0.000444905
0.000436403
0.000430828
0.000427287
0.000425142
0.000423925
0.000423315
0.000423088
0.00042309
0.000423221
0.000423417
0.000423639
0.000423863
0.000424045
0.000164189
0.000198044
0.000263119
0.000350099
0.000447548
0.00053943
0.000620876
0.000687745
0.000737664
0.000770523
0.000788026
0.000793043
0.000788874
0.000778838
0.000765836
0.000751291
0.000737308
0.00072546
0.000716942
0.000712813
0.000714158
0.00072225
0.000738717
0.0007657
0.000806015
0.000863318
0.00094232
0.00104919
0.00119223
0.00138261
0.00163361
0.00196622
0.00241223
0.00300779
0.0038415
0.00505304
0.006572
0.00829669
0.0100205
0.0114842
0.0124349
0.0126778
0.0121447
0.0109521
0.00932169
0.00751981
0.00579281
0.00431348
0.00315519
0.00231015
0.00172474
0.00133258
0.001073
0.000902475
0.000791455
0.000719078
0.000671437
0.000640728
0.000621374
0.000609625
0.000602869
0.000599344
0.000597856
0.000597653
0.00059828
0.000599404
0.000600725
0.000602081
0.000603372
0.00060454
0.000605559
0.000606429
0.000607166
0.000607775
0.000608228
0.000201157
0.000322295
0.000527723
0.000729752
0.000884948
0.000995998
0.00106784
0.00110672
0.00111994
0.00111456
0.00109694
0.0010726
0.00104604
0.00102081
0.000999761
0.000985017
0.000978563
0.000982304
0.000998509
0.00103022
0.00108172
0.00115909
0.00127113
0.00143038
0.00165464
0.00196867
0.00240623
0.00301219
0.00384397
0.00497072
0.00643502
0.00837784
0.0110229
0.014379
0.0183082
0.0222969
0.0260609
0.0289341
0.030306
0.0297377
0.0271686
0.022886
0.0176256
0.0127177
0.00881694
0.00601676
0.00412296
0.00287893
0.0020719
0.00155049
0.00121537
0.00100153
0.000866287
0.000781715
0.000730439
0.000701437
0.000687313
0.000683213
0.000685572
0.000691752
0.00069977
0.00070809
0.000715531
0.000721817
0.000727537
0.000732629
0.000737122
0.000740964
0.000744172
0.000746807
0.000748943
0.000750658
0.000752032
0.000753125
0.00075393
)
;

boundaryField
{
    ibCylinder
    {
        type            immersedBoundaryKqRWallFunction;
        patchType       immersedBoundary;
        setDeadValue    true;
        deadValue       0.00015;
        value           nonuniform List<scalar> 0();
    }
    in
    {
        type            fixedValue;
        value           uniform 0.00015;
    }
    out
    {
        type            inletOutlet;
        inletValue      uniform 0.00015;
        value           nonuniform List<scalar> 
25
(
0.000758266
0.000612337
0.000427801
0.000277065
0.000179141
0.00012398
9.58172e-05
8.25225e-05
7.66673e-05
7.42523e-05
7.3316e-05
7.29778e-05
7.28839e-05
7.29363e-05
7.32106e-05
7.40296e-05
7.62324e-05
8.17377e-05
9.45228e-05
0.000122041
0.000176507
0.0002738
0.000424045
0.000608228
0.00075393
)
;
    }
    top
    {
        type            zeroGradient;
    }
    bottom
    {
        type            zeroGradient;
    }
    frontAndBack
    {
        type            empty;
    }
}


// ************************************************************************* //
