/*--------------------------------*- C++ -*----------------------------------*\
| =========                 |                                                 |
| \\      /  F ield         | OpenFOAM: The Open Source CFD Toolbox           |
|  \\    /   O peration     | Version:  2206                                  |
|   \\  /    A nd           | Website:  www.openfoam.com                      |
|    \\/     M anipulation  |                                                 |
\*---------------------------------------------------------------------------*/
FoamFile
{
    version     2.0;
    format      ascii;
    arch        "LSB;label=32;scalar=64";
    class       volScalarField;
    location    "0.9";
    object      nut;
}
// * * * * * * * * * * * * * * * * * * * * * * * * * * * * * * * * * * * * * //

dimensions      [0 2 -1 0 0 0 0];

internalField   nonuniform List<scalar> 
1875
(
1.10256e-05
1.29519e-05
1.68083e-05
2.1363e-05
2.57855e-05
2.99391e-05
3.36738e-05
3.68483e-05
3.93868e-05
4.12868e-05
4.26079e-05
4.34511e-05
4.39332e-05
4.41699e-05
4.42654e-05
4.4311e-05
4.43909e-05
4.4581e-05
4.49552e-05
4.55898e-05
4.65676e-05
4.79818e-05
4.99395e-05
5.25648e-05
5.59995e-05
6.04044e-05
6.59602e-05
7.28753e-05
8.13956e-05
9.18149e-05
0.000104114
0.000119274
0.000138859
0.000162939
0.000190935
0.000219839
0.000248856
0.000274674
0.000293381
0.000300657
0.000293193
0.00026956
0.000231841
0.00018924
0.000149188
0.000115772
9.00442e-05
7.13191e-05
5.83108e-05
4.96591e-05
4.41958e-05
4.09335e-05
3.90609e-05
3.79856e-05
3.73583e-05
3.70065e-05
3.68456e-05
3.68339e-05
3.6935e-05
3.71124e-05
3.73304e-05
3.75548e-05
3.77563e-05
3.79285e-05
3.80879e-05
3.82322e-05
3.83613e-05
3.8473e-05
3.85671e-05
3.86452e-05
3.87089e-05
3.87605e-05
3.8802e-05
3.88352e-05
3.88597e-05
1.03258e-05
1.03527e-05
1.11212e-05
1.2992e-05
1.56688e-05
1.86887e-05
2.18382e-05
2.49064e-05
2.77072e-05
3.01097e-05
3.20473e-05
3.35144e-05
3.45496e-05
3.52202e-05
3.56011e-05
3.57286e-05
3.56792e-05
3.55167e-05
3.52916e-05
3.50439e-05
3.48047e-05
3.45963e-05
3.44339e-05
3.43264e-05
3.42788e-05
3.42977e-05
3.44018e-05
3.46406e-05
3.51157e-05
3.59848e-05
3.74433e-05
3.96584e-05
4.28164e-05
4.72777e-05
5.39528e-05
6.4318e-05
7.80497e-05
9.4744e-05
0.000113094
0.000131087
0.000146233
0.000155986
0.000158434
0.000153154
0.000141107
0.000124396
0.000105711
8.76306e-05
7.19811e-05
5.96316e-05
5.06254e-05
4.44885e-05
4.04947e-05
3.79671e-05
3.63507e-05
3.5262e-05
3.44632e-05
3.38694e-05
3.34303e-05
3.31179e-05
3.29073e-05
3.27755e-05
3.27024e-05
3.26725e-05
3.2674e-05
3.26965e-05
3.27299e-05
3.2768e-05
3.28066e-05
3.2843e-05
3.28757e-05
3.29044e-05
3.29293e-05
3.29509e-05
3.29694e-05
1.01804e-05
1.00476e-05
9.89718e-06
1.01669e-05
1.10033e-05
1.23095e-05
1.39473e-05
1.57592e-05
1.76217e-05
1.94225e-05
2.10643e-05
2.24779e-05
2.36228e-05
2.44864e-05
2.50859e-05
2.54288e-05
2.55258e-05
2.54138e-05
2.51281e-05
2.47018e-05
2.41641e-05
2.35414e-05
2.28586e-05
2.2141e-05
2.14178e-05
2.07278e-05
2.0135e-05
1.97621e-05
1.98422e-05
2.07071e-05
2.25099e-05
2.48498e-05
2.69108e-05
2.80816e-05
2.83091e-05
2.84022e-05
3.04372e-05
3.5308e-05
4.29237e-05
5.26786e-05
6.36298e-05
7.45134e-05
8.39205e-05
9.06338e-05
9.37688e-05
9.29767e-05
8.85039e-05
8.11361e-05
7.20256e-05
6.24744e-05
5.3599e-05
4.61072e-05
4.0249e-05
3.59385e-05
3.29198e-05
3.08406e-05
2.93631e-05
2.82728e-05
2.74324e-05
2.67708e-05
2.62518e-05
2.58525e-05
2.55556e-05
2.53431e-05
2.51976e-05
2.5103e-05
2.50453e-05
2.50134e-05
2.49988e-05
2.49951e-05
2.49981e-05
2.50048e-05
2.50134e-05
2.5023e-05
2.50317e-05
1.01228e-05
1.00693e-05
9.905e-06
9.74126e-06
9.76192e-06
1.0056e-05
1.06109e-05
1.1369e-05
1.22667e-05
1.32365e-05
1.42036e-05
1.51117e-05
1.59139e-05
1.65748e-05
1.70742e-05
1.74175e-05
1.75886e-05
1.75933e-05
1.74442e-05
1.71604e-05
1.67657e-05
1.62892e-05
1.57659e-05
1.52406e-05
1.47752e-05
1.44671e-05
1.4497e-05
1.52448e-05
1.74897e-05
2.23939e-05
3.03627e-05
3.96895e-05
4.77176e-05
5.31363e-05
5.49018e-05
5.15336e-05
4.39898e-05
3.73001e-05
3.43837e-05
3.51532e-05
3.86083e-05
4.37972e-05
4.98022e-05
5.56988e-05
6.06079e-05
6.38234e-05
6.49181e-05
6.37728e-05
6.05702e-05
5.57814e-05
5.007e-05
4.4138e-05
3.85694e-05
3.37428e-05
2.98212e-05
2.68028e-05
2.4586e-05
2.2971e-05
2.17882e-05
2.0895e-05
2.02e-05
1.96568e-05
1.92328e-05
1.89067e-05
1.86621e-05
1.84836e-05
1.83571e-05
1.82703e-05
1.82127e-05
1.81759e-05
1.81537e-05
1.81413e-05
1.81354e-05
1.81339e-05
1.81333e-05
1.00958e-05
1.00605e-05
9.99128e-06
9.87012e-06
9.73798e-06
9.66636e-06
9.70699e-06
9.87608e-06
1.01599e-05
1.05293e-05
1.09468e-05
1.1378e-05
1.17907e-05
1.2156e-05
1.24499e-05
1.26635e-05
1.27934e-05
1.28338e-05
1.27849e-05
1.26554e-05
1.24636e-05
1.22331e-05
1.2002e-05
1.18289e-05
1.18104e-05
1.21241e-05
1.31326e-05
1.56356e-05
2.13615e-05
3.27056e-05
4.92062e-05
6.60883e-05
7.85837e-05
8.9437e-05
9.93139e-05
0.000103832
0.000101268
9.58193e-05
8.88434e-05
8.15883e-05
7.42607e-05
6.81387e-05
6.39412e-05
6.14518e-05
6.00612e-05
5.91202e-05
5.8035e-05
5.63507e-05
5.37908e-05
5.03082e-05
4.60653e-05
4.13639e-05
3.6567e-05
3.20125e-05
2.79497e-05
2.45161e-05
2.17503e-05
1.96284e-05
1.80542e-05
1.68962e-05
1.60467e-05
1.5412e-05
1.49285e-05
1.45548e-05
1.42658e-05
1.40446e-05
1.38782e-05
1.37558e-05
1.36678e-05
1.36061e-05
1.35637e-05
1.35354e-05
1.35171e-05
1.35058e-05
1.34974e-05
1.00831e-05
1.00404e-05
9.99907e-06
9.94262e-06
9.86336e-06
9.77218e-06
9.69263e-06
9.64824e-06
9.65304e-06
9.70904e-06
9.80875e-06
9.93826e-06
1.00807e-05
1.02192e-05
1.03382e-05
1.04298e-05
1.0493e-05
1.05232e-05
1.052e-05
1.04903e-05
1.04477e-05
1.0417e-05
1.04407e-05
1.05934e-05
1.1013e-05
1.19705e-05
1.40416e-05
1.86912e-05
2.92454e-05
4.86066e-05
7.42607e-05
9.99955e-05
0.000112381
0.000135977
0.000184024
0.000226709
0.000248213
0.000261292
0.000279264
0.000281503
0.000261435
0.000228547
0.00019181
0.000156996
0.000127301
0.000103898
8.64277e-05
7.36118e-05
6.38064e-05
5.58632e-05
4.90299e-05
4.29032e-05
3.73263e-05
3.2292e-05
2.7849e-05
2.40419e-05
2.08841e-05
1.83536e-05
1.63968e-05
1.4942e-05
1.38866e-05
1.31305e-05
1.25875e-05
1.21893e-05
1.18895e-05
1.16592e-05
1.14814e-05
1.1345e-05
1.1242e-05
1.11656e-05
1.11101e-05
1.10705e-05
1.10428e-05
1.10237e-05
1.10097e-05
1.00769e-05
1.00254e-05
9.98241e-06
9.94258e-06
9.89884e-06
9.84699e-06
9.78815e-06
9.72819e-06
9.67494e-06
9.63504e-06
9.6122e-06
9.60634e-06
9.61408e-06
9.63004e-06
9.64762e-06
9.66429e-06
9.68023e-06
9.6955e-06
9.71349e-06
9.74093e-06
9.79253e-06
9.89585e-06
1.01012e-05
1.05031e-05
1.12861e-05
1.28243e-05
1.60274e-05
2.36094e-05
4.04121e-05
6.88007e-05
0.000108322
0.000167075
0.000114624
8.4207e-05
9.78517e-05
0.000142683
0.000234975
0.000468375
0.000712321
0.000737766
0.000665034
0.000559769
0.000446515
0.000345282
0.000262601
0.00019856
0.000150846
0.000116413
9.16767e-05
7.37435e-05
6.04113e-05
5.01454e-05
4.19624e-05
3.52764e-05
2.97591e-05
2.52191e-05
2.15271e-05
1.8579e-05
1.62797e-05
1.45367e-05
1.32567e-05
1.23454e-05
1.1709e-05
1.12656e-05
1.09495e-05
1.07156e-05
1.05363e-05
1.03963e-05
1.0287e-05
1.02027e-05
1.01388e-05
1.00913e-05
1.00565e-05
1.00317e-05
1.00136e-05
1.00738e-05
1.00168e-05
9.96773e-06
9.92578e-06
9.88832e-06
9.85221e-06
9.81494e-06
9.77545e-06
9.73437e-06
9.69353e-06
9.65529e-06
9.62174e-06
9.59411e-06
9.57286e-06
9.55802e-06
9.5499e-06
9.55021e-06
9.56203e-06
9.59094e-06
9.6469e-06
9.74769e-06
9.92578e-06
1.02422e-05
1.08161e-05
1.18859e-05
1.39675e-05
1.85617e-05
3.00646e-05
5.38777e-05
9.59266e-05
0.000133637
4.25483e-05
1e-06
1e-06
1e-06
1e-06
1e-06
0.019883
0.000435113
0.000629949
0.000709925
0.000680163
0.000565249
0.000445456
0.000343118
0.000261538
0.000198848
0.000151664
0.000117018
9.15674e-05
7.27525e-05
5.86263e-05
4.78004e-05
3.9333e-05
3.26069e-05
2.72483e-05
2.29831e-05
1.96207e-05
1.70105e-05
1.50264e-05
1.35559e-05
1.24956e-05
1.17492e-05
1.12296e-05
1.08642e-05
1.05984e-05
1.03966e-05
1.02383e-05
1.01129e-05
1.00142e-05
9.93764e-06
9.87948e-06
9.83614e-06
9.80459e-06
9.78285e-06
1.00723e-05
1.00121e-05
9.95872e-06
9.91213e-06
9.87162e-06
9.83591e-06
9.80344e-06
9.77273e-06
9.74277e-06
9.71322e-06
9.6844e-06
9.65709e-06
9.63238e-06
9.61157e-06
9.59619e-06
9.58792e-06
9.58959e-06
9.60553e-06
9.64274e-06
9.71312e-06
9.83762e-06
1.00548e-05
1.04387e-05
1.11365e-05
1.245e-05
1.50973e-05
2.14302e-05
3.79446e-05
6.93467e-05
0.000119613
2.76337e-05
1e-06
1e-06
1e-06
1e-06
1e-06
1e-06
1e-06
1e-06
0.000285688
0.000459808
0.000462163
0.000425498
0.000360476
0.000300164
0.000244124
0.000195247
0.000154884
0.000122746
9.76495e-05
7.82163e-05
6.31611e-05
5.14177e-05
4.2175e-05
3.485e-05
2.9036e-05
2.44337e-05
2.0819e-05
1.80144e-05
1.58736e-05
1.4271e-05
1.30955e-05
1.22465e-05
1.16358e-05
1.11901e-05
1.08557e-05
1.0597e-05
1.03924e-05
1.02299e-05
1.01018e-05
1.00026e-05
9.9271e-06
9.87082e-06
9.82986e-06
9.80271e-06
1.00715e-05
1.00097e-05
9.95374e-06
9.90378e-06
9.85961e-06
9.82069e-06
9.78627e-06
9.75549e-06
9.72756e-06
9.70194e-06
9.67842e-06
9.65715e-06
9.63863e-06
9.62375e-06
9.6138e-06
9.61058e-06
9.61694e-06
9.63741e-06
9.67955e-06
9.7565e-06
9.89193e-06
1.01302e-05
1.05584e-05
1.13519e-05
1.28809e-05
1.61273e-05
2.4639e-05
4.78004e-05
8.47517e-05
6.32001e-05
1e-06
1e-06
1e-06
1e-06
1e-06
1e-06
1e-06
1e-06
1e-06
1e-06
0.000268978
0.000218923
0.000211037
0.000210931
0.000201181
0.000180788
0.00015556
0.000131554
0.000109718
9.08959e-05
7.51149e-05
6.20845e-05
5.14084e-05
4.2701e-05
3.56323e-05
2.99303e-05
2.53683e-05
2.17548e-05
1.89262e-05
1.67412e-05
1.50762e-05
1.3822e-05
1.28821e-05
1.21742e-05
1.16327e-05
1.12097e-05
1.08744e-05
1.06076e-05
1.03965e-05
1.02316e-05
1.0105e-05
1.00095e-05
9.93875e-06
9.88752e-06
9.85426e-06
1.00711e-05
1.00084e-05
9.95109e-06
9.89919e-06
9.85258e-06
9.81094e-06
9.77383e-06
9.74077e-06
9.71129e-06
9.68507e-06
9.66195e-06
9.64202e-06
9.62557e-06
9.61325e-06
9.60604e-06
9.60553e-06
9.61429e-06
9.6367e-06
9.68042e-06
9.75927e-06
9.89887e-06
1.01483e-05
1.06052e-05
1.14692e-05
1.31753e-05
1.70315e-05
2.83863e-05
6.10414e-05
0.000120403
1e-06
1e-06
1e-06
1e-06
1e-06
1e-06
1e-06
1e-06
1e-06
1e-06
1e-06
8.78874e-05
0.000125954
0.00010313
0.000109249
0.000116769
0.000117698
0.000112102
0.000102154
8.96711e-05
7.79931e-05
6.71453e-05
5.73771e-05
4.88061e-05
4.14446e-05
3.52263e-05
3.00588e-05
2.58268e-05
2.24062e-05
1.96742e-05
1.75156e-05
1.58247e-05
1.45064e-05
1.34778e-05
1.26699e-05
1.20293e-05
1.15176e-05
1.11084e-05
1.07834e-05
1.05284e-05
1.03312e-05
1.01814e-05
1.00692e-05
9.98655e-06
9.92699e-06
9.88863e-06
1.00709e-05
1.00078e-05
9.94981e-06
9.89693e-06
9.84904e-06
9.80586e-06
9.76702e-06
9.73219e-06
9.70107e-06
9.67346e-06
9.64935e-06
9.62886e-06
9.61229e-06
9.6002e-06
9.59347e-06
9.59348e-06
9.60262e-06
9.6251e-06
9.66856e-06
9.74716e-06
9.88765e-06
1.0142e-05
1.06147e-05
1.15211e-05
1.33467e-05
1.77579e-05
3.2347e-05
6.92733e-05
8.60871e-05
1e-06
1e-06
1e-06
1e-06
1e-06
1e-06
1e-06
1e-06
1e-06
1e-06
1e-06
0.000266419
9.09269e-05
6.65553e-05
6.66349e-05
7.35109e-05
7.94057e-05
8.16082e-05
7.98518e-05
7.49515e-05
6.77284e-05
6.04604e-05
5.33644e-05
4.65912e-05
4.04472e-05
3.50144e-05
3.03342e-05
2.6386e-05
2.31093e-05
2.04246e-05
1.82466e-05
1.6492e-05
1.50836e-05
1.39534e-05
1.30452e-05
1.23149e-05
1.17292e-05
1.12626e-05
1.0895e-05
1.06094e-05
1.03906e-05
1.02256e-05
1.01028e-05
1.00126e-05
9.94786e-06
9.90629e-06
1.00708e-05
1.00076e-05
9.94943e-06
9.89626e-06
9.84797e-06
9.80429e-06
9.7649e-06
9.72945e-06
9.69771e-06
9.66954e-06
9.64494e-06
9.6241e-06
9.60731e-06
9.59513e-06
9.58839e-06
9.58843e-06
9.59756e-06
9.61995e-06
9.66321e-06
9.74158e-06
9.88216e-06
1.01379e-05
1.06157e-05
1.1537e-05
1.34079e-05
1.80461e-05
3.38313e-05
6.82385e-05
7.43214e-05
1e-06
1e-06
1e-06
1e-06
1e-06
1e-06
1e-06
1e-06
1e-06
1e-06
1e-06
3.75371e-05
6.84342e-05
5.92015e-05
5.67383e-05
6.17687e-05
6.82556e-05
7.2569e-05
7.36359e-05
7.13523e-05
6.63134e-05
6.02311e-05
5.41263e-05
4.78041e-05
4.18197e-05
3.6445e-05
3.16824e-05
2.75935e-05
2.41531e-05
2.13008e-05
1.89623e-05
1.70601e-05
1.55211e-05
1.42798e-05
1.32814e-05
1.24813e-05
1.18441e-05
1.13412e-05
1.09488e-05
1.06465e-05
1.04167e-05
1.02443e-05
1.01165e-05
1.00231e-05
9.95601e-06
9.91304e-06
1.00709e-05
1.00078e-05
9.94981e-06
9.89693e-06
9.84904e-06
9.80586e-06
9.76703e-06
9.73222e-06
9.70112e-06
9.67356e-06
9.64953e-06
9.62915e-06
9.61275e-06
9.60087e-06
9.59443e-06
9.59481e-06
9.6044e-06
9.62739e-06
9.67145e-06
9.75069e-06
9.8919e-06
1.01472e-05
1.06224e-05
1.15407e-05
1.34233e-05
1.80154e-05
3.28268e-05
6.94399e-05
8.63943e-05
1e-06
1e-06
1e-06
1e-06
1e-06
1e-06
1e-06
1e-06
1e-06
1e-06
1e-06
0.000252327
8.7069e-05
6.41191e-05
6.55341e-05
7.3883e-05
8.15805e-05
8.5487e-05
8.49781e-05
8.06428e-05
7.3652e-05
6.64144e-05
5.90065e-05
5.16706e-05
4.48508e-05
3.87132e-05
3.33633e-05
2.88177e-05
2.50288e-05
2.1916e-05
1.93864e-05
1.73465e-05
1.57095e-05
1.43998e-05
1.33547e-05
1.25236e-05
1.18667e-05
1.13518e-05
1.09527e-05
1.06468e-05
1.04154e-05
1.02424e-05
1.01146e-05
1.00213e-05
9.95446e-06
9.91171e-06
1.00711e-05
1.00084e-05
9.95109e-06
9.89919e-06
9.85258e-06
9.81095e-06
9.77387e-06
9.74085e-06
9.71145e-06
9.68537e-06
9.66247e-06
9.64286e-06
9.62686e-06
9.6151e-06
9.6086e-06
9.60894e-06
9.61871e-06
9.64227e-06
9.68725e-06
9.76747e-06
9.90858e-06
1.01601e-05
1.06221e-05
1.15087e-05
1.33206e-05
1.75252e-05
2.93554e-05
6.13646e-05
0.000120618
1e-06
1e-06
1e-06
1e-06
1e-06
1e-06
1e-06
1e-06
1e-06
1e-06
1e-06
8.59246e-05
0.00011953
9.92141e-05
0.000107942
0.00011886
0.000123047
0.000119923
0.000111523
9.96679e-05
8.81283e-05
7.67776e-05
6.61109e-05
5.64497e-05
4.79545e-05
4.06512e-05
3.45039e-05
2.94229e-05
2.52862e-05
2.19595e-05
1.93098e-05
1.72134e-05
1.55605e-05
1.42581e-05
1.32311e-05
1.24213e-05
1.17845e-05
1.12869e-05
1.09019e-05
1.06072e-05
1.03844e-05
1.02181e-05
1.00954e-05
1.00058e-05
9.94179e-06
9.90089e-06
1.00715e-05
1.00097e-05
9.95374e-06
9.90379e-06
9.85962e-06
9.82073e-06
9.78637e-06
9.7557e-06
9.72798e-06
9.7027e-06
9.67969e-06
9.65913e-06
9.64153e-06
9.6278e-06
9.61917e-06
9.61742e-06
9.62547e-06
9.64779e-06
9.6919e-06
9.77089e-06
9.90845e-06
1.01494e-05
1.05834e-05
1.14009e-05
1.30406e-05
1.66655e-05
2.57494e-05
4.8405e-05
8.40206e-05
6.59498e-05
1e-06
1e-06
1e-06
1e-06
1e-06
1e-06
1e-06
1e-06
1e-06
1e-06
0.000263376
0.000207926
0.000204272
0.000209639
0.000205879
0.000190221
0.000168165
0.000145677
0.000123843
0.000104093
8.69015e-05
7.22848e-05
6.00348e-05
4.98702e-05
4.15114e-05
3.47054e-05
2.92235e-05
2.48575e-05
2.14184e-05
1.8737e-05
1.66636e-05
1.5068e-05
1.38399e-05
1.2891e-05
1.21534e-05
1.15776e-05
1.11292e-05
1.07819e-05
1.05156e-05
1.03138e-05
1.01629e-05
1.00513e-05
9.96989e-06
9.91163e-06
9.87446e-06
1.00723e-05
1.00121e-05
9.95873e-06
9.91214e-06
9.87166e-06
9.83601e-06
9.80367e-06
9.77322e-06
9.7437e-06
9.71486e-06
9.68704e-06
9.66106e-06
9.63797e-06
9.61899e-06
9.60554e-06
9.59919e-06
9.60294e-06
9.62103e-06
9.66047e-06
9.7331e-06
9.8599e-06
1.00798e-05
1.04688e-05
1.11859e-05
1.25884e-05
1.5562e-05
2.25069e-05
3.88243e-05
6.76831e-05
0.000118557
3.02486e-05
1e-06
1e-06
1e-06
1e-06
1e-06
1e-06
1e-06
1e-06
0.000275706
0.000437781
0.000440363
0.000412325
0.000358683
0.000307746
0.000257312
0.000210975
0.000170989
0.00013792
0.000111246
8.99937e-05
7.31256e-05
5.97042e-05
4.89755e-05
4.03748e-05
3.34948e-05
2.80217e-05
2.37083e-05
2.03478e-05
1.77631e-05
1.57999e-05
1.4323e-05
1.3216e-05
1.23827e-05
1.17488e-05
1.12622e-05
1.08857e-05
1.05944e-05
1.03704e-05
1.02001e-05
1.00723e-05
9.97757e-06
9.90832e-06
9.85871e-06
9.82698e-06
1.00739e-05
1.00168e-05
9.96774e-06
9.92582e-06
9.88841e-06
9.85241e-06
9.81537e-06
9.77635e-06
9.73607e-06
9.69646e-06
9.65988e-06
9.62828e-06
9.60274e-06
9.58351e-06
9.57042e-06
9.56365e-06
9.56506e-06
9.57791e-06
9.60793e-06
9.66512e-06
9.76732e-06
9.94728e-06
1.02674e-05
1.08539e-05
1.19812e-05
1.42876e-05
1.93635e-05
3.08226e-05
5.23975e-05
9.03758e-05
0.000133385
5.14969e-05
1e-06
1e-06
1e-06
1e-06
1e-06
0.0175519
0.000420572
0.000611047
0.000675111
0.00065248
0.000550575
0.000441898
0.000347407
0.000270653
0.000210414
0.000163977
0.00012903
0.000102628
8.25377e-05
6.70346e-05
5.48672e-05
4.51681e-05
3.73562e-05
3.10796e-05
2.60602e-05
2.20932e-05
1.90053e-05
1.66434e-05
1.48682e-05
1.35541e-05
1.25888e-05
1.18795e-05
1.13523e-05
1.09534e-05
1.06475e-05
1.0412e-05
1.02314e-05
1.00942e-05
9.99131e-06
9.91519e-06
9.85959e-06
9.81984e-06
9.79422e-06
1.00769e-05
1.00254e-05
9.98246e-06
9.94265e-06
9.89896e-06
9.8472e-06
9.78865e-06
9.72938e-06
9.67739e-06
9.63931e-06
9.61861e-06
9.61484e-06
9.62418e-06
9.64088e-06
9.65811e-06
9.67334e-06
9.68712e-06
9.69992e-06
9.71545e-06
9.74071e-06
9.79083e-06
9.8938e-06
1.01007e-05
1.05098e-05
1.13236e-05
1.29874e-05
1.64982e-05
2.40943e-05
3.93564e-05
6.41716e-05
0.000100239
0.00016701
0.000111454
8.12908e-05
9.3863e-05
0.000137576
0.000225078
0.00045255
0.000677427
0.000704749
0.000636662
0.000536304
0.0004301
0.000336441
0.000260415
0.000201405
0.000156962
0.000124303
0.00010016
8.20189e-05
6.80144e-05
5.68482e-05
4.7689e-05
4.00461e-05
3.3653e-05
2.83536e-05
2.40304e-05
2.05737e-05
1.78716e-05
1.58087e-05
1.42687e-05
1.31401e-05
1.23194e-05
1.17182e-05
1.1271e-05
1.09332e-05
1.06756e-05
1.0479e-05
1.033e-05
1.02183e-05
1.01357e-05
1.00753e-05
1.00318e-05
1.00011e-05
9.98095e-06
1.00831e-05
1.00405e-05
9.99918e-06
9.94271e-06
9.86331e-06
9.77204e-06
9.69281e-06
9.64951e-06
9.65622e-06
9.71462e-06
9.81657e-06
9.94743e-06
1.00897e-05
1.02258e-05
1.03404e-05
1.04256e-05
1.04812e-05
1.05031e-05
1.04916e-05
1.04542e-05
1.04052e-05
1.03702e-05
1.03923e-05
1.05476e-05
1.09811e-05
1.19946e-05
1.42215e-05
1.89073e-05
2.84977e-05
4.53031e-05
6.80589e-05
9.22448e-05
0.000102895
0.000123146
0.000166061
0.000207183
0.000229182
0.000243831
0.000265086
0.000265829
0.000246864
0.000217445
0.000185411
0.000155413
0.00012972
0.000109056
9.31326e-05
8.09626e-05
7.1156e-05
6.28011e-05
5.53103e-05
4.83952e-05
4.19836e-05
3.6135e-05
3.09488e-05
2.65001e-05
2.28124e-05
1.98562e-05
1.75603e-05
1.58311e-05
1.45535e-05
1.36128e-05
1.29164e-05
1.23953e-05
1.20014e-05
1.17024e-05
1.14763e-05
1.13067e-05
1.11812e-05
1.10897e-05
1.10239e-05
1.09773e-05
1.09448e-05
1.09225e-05
1.09081e-05
1.00959e-05
1.00607e-05
9.99151e-06
9.87009e-06
9.73745e-06
9.66568e-06
9.70718e-06
9.87834e-06
1.01651e-05
1.05373e-05
1.09566e-05
1.13875e-05
1.17969e-05
1.21558e-05
1.244e-05
1.26413e-05
1.27572e-05
1.27828e-05
1.27194e-05
1.25767e-05
1.23737e-05
1.21351e-05
1.18993e-05
1.17258e-05
1.17133e-05
1.20487e-05
1.31178e-05
1.56601e-05
2.09457e-05
3.07922e-05
4.50801e-05
6.03161e-05
7.24877e-05
8.14785e-05
8.80923e-05
8.92499e-05
8.81464e-05
8.57413e-05
8.26823e-05
7.8821e-05
7.4628e-05
7.09708e-05
6.8546e-05
6.72811e-05
6.66855e-05
6.61821e-05
6.52175e-05
6.33677e-05
6.03969e-05
5.63088e-05
5.13269e-05
4.58202e-05
4.02213e-05
3.49263e-05
3.02219e-05
2.62582e-05
2.30666e-05
2.0602e-05
1.87544e-05
1.73773e-05
1.63487e-05
1.55726e-05
1.49828e-05
1.45332e-05
1.41922e-05
1.39363e-05
1.37474e-05
1.36103e-05
1.35127e-05
1.34446e-05
1.3398e-05
1.33668e-05
1.33465e-05
1.33338e-05
1.33258e-05
1.01229e-05
1.00698e-05
9.90548e-06
9.74122e-06
9.76152e-06
1.00563e-05
1.06133e-05
1.13747e-05
1.22761e-05
1.32487e-05
1.42162e-05
1.5121e-05
1.59157e-05
1.65648e-05
1.70487e-05
1.73737e-05
1.75248e-05
1.75097e-05
1.73423e-05
1.70428e-05
1.6636e-05
1.61516e-05
1.56251e-05
1.51019e-05
1.46447e-05
1.43535e-05
1.44153e-05
1.52022e-05
1.73746e-05
2.18236e-05
2.89017e-05
3.73483e-05
4.49653e-05
5.01219e-05
5.20414e-05
4.97372e-05
4.41958e-05
3.91539e-05
3.72663e-05
3.87923e-05
4.29882e-05
4.89579e-05
5.57334e-05
6.22889e-05
6.76378e-05
7.09936e-05
7.19005e-05
7.02638e-05
6.63338e-05
6.06763e-05
5.40601e-05
4.72785e-05
4.09746e-05
3.55476e-05
3.11512e-05
2.7758e-05
2.52414e-05
2.33906e-05
2.20175e-05
2.09761e-05
2.01728e-05
1.95553e-05
1.90831e-05
1.87269e-05
1.8464e-05
1.82744e-05
1.81413e-05
1.80505e-05
1.79904e-05
1.79521e-05
1.79289e-05
1.7916e-05
1.79097e-05
1.79077e-05
1.7907e-05
1.01808e-05
1.00485e-05
9.89835e-06
1.01682e-05
1.10056e-05
1.2314e-05
1.39554e-05
1.57716e-05
1.76372e-05
1.94384e-05
2.10761e-05
2.24802e-05
2.36104e-05
2.4455e-05
2.50326e-05
2.53525e-05
2.54271e-05
2.52949e-05
2.49927e-05
2.45546e-05
2.40105e-05
2.33874e-05
2.27111e-05
2.2008e-05
2.13086e-05
2.06541e-05
2.01118e-05
1.9807e-05
1.99638e-05
2.08877e-05
2.27361e-05
2.51787e-05
2.74808e-05
2.90257e-05
2.97123e-05
3.02285e-05
3.27065e-05
3.81941e-05
4.65974e-05
5.72762e-05
6.92223e-05
8.10557e-05
9.1185e-05
9.82383e-05
0.000101251
9.98823e-05
9.44819e-05
8.60047e-05
7.57852e-05
6.52618e-05
5.56132e-05
4.75437e-05
4.12624e-05
3.6634e-05
3.33632e-05
3.10827e-05
2.94463e-05
2.82311e-05
2.73011e-05
2.65809e-05
2.60271e-05
2.56089e-05
2.53029e-05
2.50863e-05
2.4939e-05
2.48439e-05
2.47864e-05
2.47548e-05
2.47408e-05
2.47377e-05
2.47413e-05
2.47485e-05
2.47575e-05
2.47671e-05
2.47742e-05
1.03263e-05
1.03542e-05
1.11242e-05
1.29977e-05
1.56788e-05
1.8704e-05
2.18583e-05
2.49286e-05
2.77261e-05
3.01185e-05
3.20392e-05
3.3484e-05
3.44936e-05
3.51376e-05
3.54927e-05
3.55971e-05
3.55284e-05
3.53509e-05
3.51158e-05
3.48636e-05
3.46258e-05
3.4426e-05
3.42809e-05
3.42021e-05
3.41983e-05
3.42807e-05
3.44738e-05
3.4833e-05
3.54653e-05
3.65361e-05
3.82391e-05
4.07258e-05
4.42253e-05
4.91574e-05
5.63819e-05
6.72953e-05
8.17648e-05
9.93447e-05
0.000118637
0.000137492
0.00015329
0.000163313
0.000165405
0.000159163
0.00014582
0.00012778
0.000107971
8.90777e-05
7.29055e-05
6.02377e-05
5.10313e-05
4.4751e-05
4.06363e-05
3.79996e-05
3.62909e-05
3.51253e-05
3.42695e-05
3.36373e-05
3.31753e-05
3.28507e-05
3.26351e-05
3.25031e-05
3.24323e-05
3.24051e-05
3.24082e-05
3.2432e-05
3.24663e-05
3.25053e-05
3.25448e-05
3.25819e-05
3.26154e-05
3.26449e-05
3.26707e-05
3.2693e-05
3.27092e-05
1.1025e-05
1.2952e-05
1.6814e-05
2.13799e-05
2.58158e-05
2.99798e-05
3.37162e-05
3.6881e-05
3.93986e-05
4.12691e-05
4.25561e-05
4.33642e-05
4.38133e-05
4.40207e-05
4.40918e-05
4.41179e-05
4.41834e-05
4.43636e-05
4.47318e-05
4.53642e-05
4.63436e-05
4.77636e-05
4.9732e-05
5.23736e-05
5.58317e-05
6.02678e-05
6.58636e-05
7.28269e-05
8.1402e-05
9.18793e-05
0.000104231
0.000119441
0.00013908
0.000163207
0.000191254
0.000220278
0.000249463
0.000275479
0.000294372
0.000301777
0.000294349
0.000270624
0.000232693
0.000189828
0.000149519
0.000115904
9.00609e-05
7.12972e-05
5.82936e-05
4.9654e-05
4.41872e-05
4.08986e-05
3.89844e-05
3.7864e-05
3.71974e-05
3.6815e-05
3.66328e-05
3.66075e-05
3.67002e-05
3.68726e-05
3.70877e-05
3.73105e-05
3.75109e-05
3.76819e-05
3.78402e-05
3.79835e-05
3.81118e-05
3.82228e-05
3.83166e-05
3.83943e-05
3.8458e-05
3.85099e-05
3.85527e-05
3.85883e-05
3.86152e-05
)
;

boundaryField
{
    ibCylinder
    {
        type            immersedBoundaryNutWallFunction;
        patchType       immersedBoundary;
        blending        stepwise;
        value           nonuniform List<scalar> 0();
    }
    in
    {
        type            zeroGradient;
    }
    out
    {
        type            zeroGradient;
    }
    top
    {
        type            zeroGradient;
    }
    bottom
    {
        type            zeroGradient;
    }
    frontAndBack
    {
        type            empty;
    }
}


// ************************************************************************* //
