/*--------------------------------*- C++ -*----------------------------------*\
| =========                 |                                                 |
| \\      /  F ield         | OpenFOAM: The Open Source CFD Toolbox           |
|  \\    /   O peration     | Version:  2206                                  |
|   \\  /    A nd           | Website:  www.openfoam.com                      |
|    \\/     M anipulation  |                                                 |
\*---------------------------------------------------------------------------*/
FoamFile
{
    version     2.0;
    format      ascii;
    arch        "LSB;label=32;scalar=64";
    class       volScalarField;
    location    "0.9";
    object      p;
}
// * * * * * * * * * * * * * * * * * * * * * * * * * * * * * * * * * * * * * //

dimensions      [0 2 -2 0 0 0 0];

internalField   nonuniform List<scalar> 
1875
(
6.33067
5.9408
5.68923
5.59062
5.52977
5.48132
5.4452
5.4185
5.39679
5.37714
5.35798
5.33828
5.31726
5.2943
5.2684
5.23856
5.2034
5.16142
5.11065
5.04849
4.97155
4.87549
4.75477
4.60245
4.41002
4.1674
3.86341
3.48683
3.0287
2.48577
1.86513
1.19056
0.503209
-0.151537
-0.732833
-1.19673
-1.51775
-1.70864
-1.79174
-1.79309
-1.73641
-1.63612
-1.50419
-1.35773
-1.21018
-1.06785
-0.933823
-0.809548
-0.695547
-0.591485
-0.496692
-0.410896
-0.333962
-0.265268
-0.204618
-0.151705
-0.106502
-0.0686581
-0.0376665
-0.0129181
0.00625795
0.0206073
0.0308313
0.0374852
0.0411302
0.0423877
0.0417396
0.0395917
0.0362912
0.032086
0.0271823
0.0217456
0.0159085
0.00977585
0.00340899
5.95566
5.79991
5.67076
5.59263
5.5384
5.49387
5.45778
5.42976
5.40632
5.38504
5.36457
5.34387
5.32212
5.29857
5.27244
5.24248
5.20738
5.16568
5.11542
5.054
4.97804
4.88319
4.76382
4.61277
4.42111
4.17807
3.87132
3.48801
3.01702
2.45302
1.80212
1.08998
0.359292
-0.334253
-0.932281
-1.39038
-1.68896
-1.83671
-1.87219
-1.83035
-1.7369
-1.60794
-1.45764
-1.30302
-1.15612
-1.01947
-0.892621
-0.775444
-0.667976
-0.569624
-0.479479
-0.397457
-0.323663
-0.257363
-0.198324
-0.146693
-0.102473
-0.0653961
-0.0350003
-0.0107658
0.00795361
0.0218459
0.0315748
0.0378645
0.0413494
0.0425165
0.0418111
0.0396329
0.0363068
0.0320863
0.0271739
0.021734
0.0158986
0.00976456
0.00342496
5.77932
5.72881
5.65781
5.59855
5.55009
5.50786
5.47275
5.4435
5.41839
5.39596
5.37481
5.3537
5.33192
5.30876
5.28345
5.25471
5.22127
5.18179
5.1344
5.07653
5.00488
4.91496
4.80089
4.65491
4.46701
4.22462
3.91257
3.51401
3.01282
2.39841
1.67436
0.868639
0.0390362
-0.742234
-1.39036
-1.84617
-2.10122
-2.17377
-2.11878
-1.99704
-1.84276
-1.66755
-1.48358
-1.30321
-1.13403
-0.980425
-0.845483
-0.727818
-0.623894
-0.531355
-0.447639
-0.371532
-0.302553
-0.240246
-0.184281
-0.135383
-0.093269
-0.0579095
-0.0290511
-0.00612379
0.0115827
0.0246903
0.0337871
0.0395694
0.0426201
0.0434469
0.0424879
0.0401195
0.0366492
0.0323212
0.0273315
0.0218363
0.0159637
0.00979415
0.00345324
5.70086
5.67983
5.63457
5.58983
5.55105
5.51643
5.48535
5.45672
5.43223
5.41056
5.3894
5.36842
5.34756
5.32609
5.30311
5.27746
5.24796
5.21347
5.17231
5.12194
5.05904
4.97912
4.87591
4.74071
4.56171
4.32324
4.00532
3.58418
3.03456
2.33598
1.48431
0.512841
-0.497038
-1.4242
-2.15534
-2.59023
-2.75079
-2.70958
-2.5225
-2.28479
-2.04595
-1.81195
-1.57951
-1.3551
-1.14939
-0.967403
-0.811762
-0.678216
-0.564831
-0.469964
-0.389264
-0.319285
-0.257422
-0.202234
-0.153079
-0.109974
-0.0728261
-0.0415824
-0.0161804
0.00392615
0.019368
0.0306266
0.0382599
0.0429105
0.0450829
0.0452414
0.0437759
0.0410263
0.0372753
0.032743
0.0276069
0.0220074
0.0160629
0.00983572
0.00346643
5.64944
5.63855
5.61088
5.57845
5.548
5.51966
5.49329
5.46853
5.44631
5.42619
5.40634
5.38701
5.36852
5.35012
5.33075
5.3095
5.28569
5.25843
5.22622
5.18717
5.13731
5.07204
4.9854
4.86741
4.7041
4.47577
4.15569
3.70899
3.09423
2.26743
1.19367
-0.0705209
-1.41273
-2.55972
-3.31618
-3.67316
-3.67448
-3.41943
-3.03672
-2.65766
-2.32461
-2.02705
-1.74603
-1.46924
-1.21512
-0.99027
-0.798432
-0.633866
-0.496886
-0.389068
-0.306099
-0.240266
-0.186015
-0.140409
-0.101424
-0.0678153
-0.0390702
-0.0150204
0.00433757
0.0196827
0.0313206
0.0394913
0.0447206
0.0476031
0.0484666
0.0476391
0.0454415
0.0421572
0.0380186
0.033211
0.0278837
0.0221543
0.0161233
0.00984151
0.00343932
5.61436
5.60816
5.59066
5.56764
5.54405
5.52103
5.49893
5.47787
5.45794
5.43967
5.42276
5.40668
5.39124
5.37637
5.36167
5.34647
5.3303
5.31248
5.29158
5.26626
5.23345
5.18849
5.12524
5.03326
4.89663
4.69145
4.38218
3.9172
3.22571
2.19491
0.814149
-0.783118
-2.42799
-3.92754
-4.743
-4.8716
-4.6119
-4.09466
-3.48359
-2.97027
-2.57807
-2.23367
-1.91471
-1.61143
-1.31357
-1.03639
-0.801583
-0.602947
-0.434474
-0.305092
-0.210708
-0.142819
-0.0937469
-0.0580445
-0.0312412
-0.00995452
0.00742298
0.0215662
0.0328273
0.0413314
0.0474523
0.0514209
0.053405
0.0537721
0.0528072
0.0506684
0.0475288
0.0435616
0.0389282
0.0337706
0.0282014
0.0223105
0.0161735
0.00983748
0.00338551
5.59013
5.58624
5.5745
5.55781
5.53954
5.52101
5.50268
5.48494
5.46813
5.45258
5.4383
5.42509
5.41297
5.40205
5.39254
5.38423
5.37663
5.36933
5.36168
5.35269
5.34038
5.32093
5.28831
5.23239
5.13648
4.97338
4.69874
4.2398
3.47891
2.25668
0.702608
-0.864084
-2.14243
-4.34635
-5.68453
-5.79222
-5.27894
-4.4254
-3.62975
-3.03033
-2.62749
-2.29316
-1.99061
-1.69483
-1.38707
-1.08395
-0.808219
-0.574419
-0.381442
-0.228837
-0.116459
-0.0409409
0.00583789
0.0332541
0.0488436
0.0576627
0.0625742
0.0652938
0.0666833
0.0671618
0.0668766
0.0658007
0.0639237
0.0613462
0.0581414
0.0543436
0.0500226
0.045233
0.0400258
0.0344626
0.0286072
0.0225214
0.0162515
0.00984047
0.00331709
5.57301
5.57031
5.56195
5.54954
5.53525
5.52026
5.50513
5.49033
5.47629
5.46335
5.45173
5.44152
5.43302
5.42655
5.42238
5.42058
5.42128
5.42471
5.43098
5.43974
5.44986
5.45889
5.46218
5.45116
5.41035
5.31253
5.10877
4.71171
3.97936
2.71829
1.269
-1.01282
0
0
0
0
0
-3.86379
-3.47211
-2.81733
-2.45316
-2.18302
-1.94207
-1.6836
-1.39676
-1.0933
-0.795735
-0.531345
-0.31249
-0.142879
-0.0212948
0.0574228
0.102277
0.12383
0.129888
0.126813
0.119624
0.110968
0.102483
0.0947017
0.0876782
0.0812755
0.0753146
0.0696192
0.0640521
0.0584989
0.0528882
0.0471675
0.0413007
0.0352775
0.0291034
0.0228004
0.0163792
0.00987869
0.00326538
5.56082
5.55882
5.55256
5.54301
5.53164
5.51939
5.5068
5.49441
5.48271
5.4721
5.46293
5.45553
5.4503
5.44775
5.44843
5.45287
5.46167
5.47557
5.49528
5.52136
5.55397
5.5924
5.63423
5.67375
5.69901
5.68669
5.59234
5.346
4.76442
3.75138
2.29852
0
0
0
0
0
0
0
0
-2.57058
-2.21465
-2.01146
-1.81724
-1.59563
-1.33464
-1.04378
-0.746387
-0.471099
-0.236144
-0.0541509
0.0743253
0.154909
0.196855
0.210401
0.205593
0.190969
0.172615
0.153856
0.136483
0.12108
0.107754
0.0963279
0.0864644
0.0777876
0.069949
0.0626983
0.0558294
0.0491935
0.0426666
0.036171
0.0296635
0.0231325
0.0165529
0.00996017
0.00324646
5.55231
5.55073
5.5458
5.53815
5.52885
5.51861
5.50796
5.49745
5.48762
5.47893
5.47183
5.46679
5.46433
5.4651
5.46999
5.47982
5.49561
5.51857
5.55011
5.59175
5.645
5.71104
5.79008
5.88007
5.97408
6.05505
6.0882
5.99229
5.65074
5.49617
0
0
0
0
0
0
0
0
0
0
-1.99499
-1.83364
-1.67759
-1.48477
-1.24408
-0.965179
-0.67374
-0.398515
-0.161331
0.0249487
0.156489
0.237144
0.275665
0.282812
0.269726
0.245909
0.218241
0.190768
0.165597
0.14368
0.125094
0.109491
0.0963182
0.0850412
0.0752244
0.0664858
0.0585039
0.0510651
0.0439565
0.0370338
0.0302179
0.0234725
0.0167419
0.0100522
0.0032433
5.5467
5.54539
5.54127
5.53483
5.52688
5.51802
5.50874
5.49957
5.4911
5.48384
5.47829
5.47504
5.47472
5.47803
5.48609
5.50005
5.52122
5.55121
5.59202
5.64601
5.7159
5.8046
5.91483
6.04817
6.20303
6.37017
6.52132
6.53994
6.3481
0
0
0
0
0
0
0
0
0
0
0
-1.74179
-1.65191
-1.53288
-1.36877
-1.14755
-0.881807
-0.598563
-0.328135
-0.0936008
0.0910774
0.220563
0.297991
0.332355
0.33455
0.315538
0.285386
0.251344
0.217861
0.187339
0.160814
0.138375
0.119628
0.103957
0.0907386
0.0794268
0.0695217
0.0606357
0.0525559
0.0449973
0.0377443
0.0306829
0.0237629
0.0169085
0.0101356
0.00325012
5.54351
5.54234
5.53866
5.53289
5.52571
5.51766
5.50918
5.50083
5.49318
5.48678
5.48219
5.48005
5.48111
5.48608
5.49606
5.51259
5.53714
5.57159
5.61832
5.68025
5.76091
5.86442
5.99529
6.15778
6.3543
6.58133
6.81295
6.96994
7.15572
0
0
0
0
0
0
0
0
0
0
0
-1.53801
-1.49026
-1.41347
-1.27318
-1.06769
-0.813626
-0.538193
-0.273288
-0.0433961
0.137045
0.263117
0.337057
0.368307
0.367133
0.343654
0.309295
0.271449
0.234404
0.200674
0.171366
0.146592
0.125936
0.108753
0.0943608
0.0821374
0.0715291
0.0620834
0.0535283
0.045652
0.0382025
0.0309923
0.0239574
0.0170211
0.0101929
0.00325848
5.54247
5.54134
5.53781
5.53225
5.52532
5.51753
5.50933
5.50124
5.49387
5.48776
5.48348
5.4817
5.48325
5.48884
5.49945
5.51684
5.54254
5.57852
5.62727
5.69193
5.77631
5.88496
6.023
6.19566
6.40674
6.65432
6.91288
7.13551
7.45792
0
0
0
0
0
0
0
0
0
0
0
-1.4206
-1.43381
-1.3656
-1.23367
-1.03523
-0.786741
-0.514145
-0.251629
-0.0237402
0.154466
0.278654
0.351016
0.380865
0.378961
0.353664
0.317244
0.278145
0.239939
0.205136
0.174898
0.149347
0.128055
0.110362
0.0955706
0.0830383
0.072238
0.0626753
0.0538856
0.0458643
0.0383495
0.0310953
0.0240253
0.01706
0.0102127
0.00326183
5.5435
5.54232
5.53865
5.53287
5.5257
5.51764
5.50917
5.50081
5.49316
5.48676
5.48217
5.48003
5.48109
5.48606
5.49604
5.51257
5.53712
5.57157
5.6183
5.68023
5.76089
5.86441
5.99528
6.15777
6.3543
6.58133
6.81298
6.96996
7.15575
0
0
0
0
0
0
0
0
0
0
0
-1.53829
-1.49057
-1.41381
-1.27347
-1.06796
-0.81385
-0.538361
-0.273406
-0.0434753
0.136991
0.263078
0.337024
0.368277
0.367105
0.343626
0.309266
0.27142
0.234376
0.200648
0.171341
0.146569
0.125914
0.108734
0.0943434
0.0821213
0.0715143
0.0620699
0.0535161
0.0456417
0.038194
0.0309858
0.0239527
0.0170178
0.0101911
0.0032579
5.54667
5.54535
5.54124
5.5348
5.52684
5.51798
5.5087
5.49954
5.49107
5.4838
5.47825
5.47501
5.47469
5.47799
5.48605
5.50001
5.52118
5.55116
5.59197
5.64597
5.71587
5.80457
5.91479
6.04814
6.20302
6.37018
6.52133
6.53986
6.34811
0
0
0
0
0
0
0
0
0
0
0
-1.74253
-1.65254
-1.53355
-1.3694
-1.1481
-0.882234
-0.598868
-0.328339
-0.0937355
0.0909864
0.220494
0.297931
0.332297
0.334491
0.315478
0.285326
0.251286
0.217806
0.187286
0.160764
0.138328
0.119586
0.103918
0.0907037
0.0793947
0.0694922
0.0606088
0.0525319
0.0449768
0.0377276
0.03067
0.0237534
0.016902
0.010132
0.00324898
5.55227
5.55069
5.54575
5.5381
5.5288
5.51855
5.50791
5.4974
5.48757
5.47888
5.47178
5.46674
5.46427
5.46504
5.46993
5.47976
5.49555
5.51851
5.55004
5.59168
5.64494
5.71098
5.79002
5.88002
5.97404
6.05503
6.0882
5.99223
5.65045
5.49644
0
0
0
0
0
0
0
0
0
0
-1.99557
-1.83442
-1.67848
-1.48567
-1.24484
-0.965755
-0.674143
-0.398786
-0.161516
0.024817
0.156384
0.23705
0.275573
0.282718
0.269632
0.245817
0.218153
0.190685
0.165518
0.143606
0.125024
0.109426
0.0962603
0.0849889
0.0751767
0.066442
0.058464
0.0510296
0.0439261
0.0370089
0.0301985
0.0234583
0.0167323
0.0100468
0.00324158
5.56076
5.55875
5.55249
5.54294
5.53158
5.51932
5.50673
5.49434
5.48264
5.47203
5.46286
5.45546
5.45022
5.44767
5.44835
5.45278
5.46159
5.47548
5.49519
5.52127
5.55388
5.59231
5.63413
5.67366
5.69893
5.68663
5.59226
5.34607
4.76458
3.75159
2.30056
0
0
0
0
0
0
0
0
-2.56951
-2.21448
-2.01219
-1.8182
-1.59666
-1.3355
-1.04443
-0.746853
-0.471446
-0.236394
-0.054339
0.0741708
0.15477
0.196721
0.210268
0.205464
0.190845
0.172497
0.153744
0.136377
0.120981
0.107662
0.0962436
0.0863878
0.0777183
0.0698861
0.0626408
0.0557772
0.0491471
0.0426267
0.0361382
0.0296379
0.0231136
0.0165401
0.00995296
0.00324417
5.57293
5.57024
5.56188
5.54946
5.53518
5.52018
5.50504
5.49025
5.47621
5.46327
5.45164
5.44144
5.43293
5.42646
5.42229
5.42048
5.42117
5.4246
5.43087
5.43963
5.44974
5.45876
5.46205
5.45102
5.41022
5.31239
5.10866
4.71149
3.97949
2.71881
1.27079
-1.01164
0
0
0
0
0
-3.86915
-3.47126
-2.81653
-2.4532
-2.18363
-1.94299
-1.68458
-1.39759
-1.09394
-0.796209
-0.531729
-0.312791
-0.143118
-0.0214989
0.0572376
0.1021
0.123658
0.129723
0.126658
0.119476
0.110829
0.102353
0.0945805
0.0875656
0.0811721
0.0752204
0.0695339
0.0639747
0.0584286
0.0528247
0.0471111
0.0412521
0.0352373
0.0290718
0.022777
0.0163633
0.00986971
0.00326252
5.59004
5.58616
5.57441
5.55772
5.53945
5.52092
5.50259
5.48484
5.46803
5.45248
5.4382
5.42499
5.41286
5.40194
5.39242
5.38411
5.3765
5.3692
5.36154
5.35254
5.34023
5.32076
5.28813
5.23221
5.13629
4.97318
4.69856
4.23963
3.47867
2.25798
0.704337
-0.865033
-2.1444
-4.34789
-5.68763
-5.79435
-5.28056
-4.42769
-3.63084
-3.03032
-2.62768
-2.29389
-1.99143
-1.69564
-1.38776
-1.08447
-0.808633
-0.574785
-0.381769
-0.229118
-0.11671
-0.041171
0.00562265
0.0330488
0.0486482
0.057477
0.0623993
0.0651301
0.066531
0.0670202
0.0667455
0.06568
0.0638134
0.0612461
0.0580506
0.0542616
0.0499489
0.0451676
0.0399693
0.0344156
0.02857
0.0224937
0.0162326
0.00982973
0.00331366
5.61426
5.60806
5.59056
5.56754
5.54395
5.52092
5.49883
5.47776
5.45783
5.43955
5.42264
5.40656
5.39112
5.37624
5.36154
5.34633
5.33015
5.31232
5.29141
5.26608
5.23326
5.18828
5.12501
5.03301
4.89637
4.69117
4.38192
3.91692
3.22558
2.19409
0.8132
-0.783462
-2.42953
-3.92999
-4.74593
-4.87423
-4.61437
-4.09643
-3.48471
-2.9706
-2.57853
-2.23442
-1.91545
-1.61206
-1.31412
-1.03689
-0.802021
-0.603328
-0.434834
-0.305414
-0.210994
-0.143085
-0.0939964
-0.0582798
-0.0314629
-0.0101639
0.00722624
0.0213819
0.0326551
0.0411723
0.0473052
0.0512851
0.0532806
0.0536586
0.0527044
0.0505758
0.047446
0.0434883
0.0388647
0.0337177
0.0281592
0.0222788
0.0161517
0.00982504
0.00338151
5.64933
5.63845
5.61077
5.57834
5.54789
5.51954
5.49317
5.46841
5.44618
5.42607
5.40621
5.38688
5.36839
5.34997
5.3306
5.30933
5.28552
5.25825
5.22603
5.18696
5.13708
5.07179
4.98512
4.86711
4.70377
4.47542
4.15532
3.70856
3.0938
2.26669
1.19255
-0.0714663
-1.41347
-2.56166
-3.31867
-3.67575
-3.67653
-3.42045
-3.03765
-2.65803
-2.32487
-2.02753
-1.74665
-1.46979
-1.21567
-0.990797
-0.7989
-0.634284
-0.497273
-0.389419
-0.306419
-0.240562
-0.186291
-0.140666
-0.101666
-0.0680427
-0.0392842
-0.0152205
0.0041518
0.0195095
0.03116
0.0393429
0.0445842
0.0474784
0.0483536
0.0475376
0.0453508
0.0420772
0.0379494
0.0331531
0.0278373
0.0221192
0.016099
0.00982748
0.00343481
5.70075
5.67971
5.63445
5.58972
5.55093
5.51631
5.48523
5.45659
5.4321
5.41042
5.38926
5.36827
5.34741
5.32593
5.30294
5.27728
5.24777
5.21327
5.17209
5.1217
5.05878
4.97883
4.87559
4.74035
4.56132
4.32281
4.00486
3.58367
3.03402
2.33535
1.48369
0.51195
-0.49799
-1.42568
-2.15702
-2.59192
-2.75193
-2.71037
-2.52318
-2.28529
-2.04634
-1.8124
-1.58003
-1.35563
-1.14991
-0.967914
-0.812241
-0.678657
-0.565237
-0.470336
-0.389608
-0.319603
-0.257718
-0.20251
-0.153337
-0.110216
-0.0730536
-0.0417955
-0.0163789
0.00374148
0.0191967
0.0304685
0.038114
0.042777
0.0449617
0.0451325
0.0436788
0.040941
0.0372017
0.0326812
0.0275571
0.0219694
0.0160364
0.00982037
0.00346149
5.7792
5.72869
5.65769
5.59843
5.54996
5.50773
5.47262
5.44337
5.41825
5.39582
5.37466
5.35355
5.33176
5.3086
5.28327
5.25452
5.22107
5.18157
5.13416
5.07628
5.00459
4.91464
4.80053
4.65451
4.46657
4.22414
3.91206
3.51346
3.0122
2.39773
1.67356
0.867689
0.0379129
-0.743521
-1.39174
-1.84751
-2.10238
-2.17476
-2.11966
-1.9978
-1.84338
-1.66816
-1.48422
-1.30381
-1.1346
-0.980954
-0.845969
-0.728267
-0.62431
-0.531742
-0.447999
-0.371867
-0.302864
-0.240536
-0.184551
-0.135635
-0.0935062
-0.0581318
-0.0292585
-0.00631657
0.0114038
0.0245249
0.0336344
0.0394296
0.0424928
0.0433322
0.0423861
0.0400306
0.0365727
0.0322569
0.0272794
0.0217963
0.0159356
0.00977787
0.00344801
5.95554
5.79979
5.67063
5.59251
5.53827
5.49373
5.45765
5.42962
5.40618
5.38489
5.36441
5.34371
5.32196
5.29839
5.27226
5.24228
5.20717
5.16546
5.11518
5.05373
4.97774
4.88285
4.76344
4.61234
4.42064
4.17756
3.87077
3.48741
3.01636
2.45227
1.80125
1.08895
0.358074
-0.335619
-0.93366
-1.39169
-1.69021
-1.83783
-1.8732
-1.83128
-1.73773
-1.60869
-1.45835
-1.30366
-1.15669
-1.01999
-0.893106
-0.775897
-0.668399
-0.570019
-0.479847
-0.3978
-0.323982
-0.25766
-0.198601
-0.146952
-0.102716
-0.065624
-0.0352132
-0.010964
0.00776972
0.0216758
0.031418
0.0377207
0.0412182
0.0423986
0.041706
0.0395417
0.0362292
0.0320206
0.0271204
0.0216928
0.0158697
0.00974776
0.00341957
6.33055
5.94068
5.68911
5.59049
5.52964
5.48119
5.44507
5.41836
5.39664
5.37699
5.35783
5.33812
5.31709
5.29413
5.26822
5.23836
5.20319
5.16119
5.1104
5.04821
4.97124
4.87514
4.75438
4.60202
4.40954
4.16687
3.86284
3.48621
3.02801
2.48499
1.86424
1.18952
0.501978
-0.152886
-0.734178
-1.19804
-1.51901
-1.70983
-1.79285
-1.79412
-1.73734
-1.63693
-1.50491
-1.35838
-1.21076
-1.06839
-0.934318
-0.810007
-0.695975
-0.591883
-0.497063
-0.411241
-0.334284
-0.265568
-0.204898
-0.151967
-0.106747
-0.0688881
-0.0378817
-0.0131183
0.00607182
0.0204355
0.0306726
0.0373399
0.0409974
0.0422685
0.0416335
0.0394997
0.0362125
0.0320197
0.027128
0.021704
0.0158791
0.00975882
0.00340355
)
;

boundaryField
{
    ibCylinder
    {
        type            zeroGradientIb;
        patchType       immersedBoundary;
        setDeadValue    true;
        deadValue       0;
        value           nonuniform List<scalar> 0();
    }
    in
    {
        type            zeroGradient;
    }
    out
    {
        type            fixedValue;
        value           uniform 0;
    }
    top
    {
        type            zeroGradient;
    }
    bottom
    {
        type            zeroGradient;
    }
    frontAndBack
    {
        type            empty;
    }
}


// ************************************************************************* //
