/*--------------------------------*- C++ -*----------------------------------*\
| =========                 |                                                 |
| \\      /  F ield         | OpenFOAM: The Open Source CFD Toolbox           |
|  \\    /   O peration     | Version:  2206                                  |
|   \\  /    A nd           | Website:  www.openfoam.com                      |
|    \\/     M anipulation  |                                                 |
\*---------------------------------------------------------------------------*/
FoamFile
{
    version     2.0;
    format      ascii;
    arch        "LSB;label=32;scalar=64";
    class       surfaceScalarField;
    location    "0.9";
    object      phi;
}
// * * * * * * * * * * * * * * * * * * * * * * * * * * * * * * * * * * * * * //

dimensions      [0 3 -1 0 0 0 0];

oriented        oriented;

internalField   nonuniform List<scalar> 
3650
(
0.00275159
0.000448415
0.00224547
0.000506113
0.00181758
0.000427897
0.00148771
0.000329861
0.00124596
0.000241754
0.00107545
0.000170517
0.000956394
0.000119051
0.000873779
8.26155e-05
0.000816247
5.75322e-05
0.000776235
4.00122e-05
0.000749316
2.6919e-05
0.000732906
1.64098e-05
0.000725699
7.20747e-06
0.000727337
-1.63901e-06
0.000737674
-1.03368e-05
0.00075779
-2.01165e-05
0.000789265
-3.14747e-05
0.000834169
-4.49052e-05
0.000895229
-6.10585e-05
0.00097592
-8.06929e-05
0.00108054
-0.000104615
0.00121416
-0.000133623
0.00138255
-0.000168395
0.00159186
-0.000209314
0.00184801
-0.000256142
0.00215562
-0.000307608
0.00251644
-0.000360818
0.00292709
-0.000410656
0.00337633
-0.000449245
0.00384374
-0.000467409
0.00429603
-0.000452286
0.00468572
-0.000389691
0.00496245
-0.000276734
0.0050816
-0.000119152
0.00502249
5.91162e-05
0.00478711
0.000235373
0.0044034
0.000383707
0.00390848
0.000494922
0.00335308
0.000555406
0.0027877
0.000565368
0.00225613
0.000531578
0.00178975
0.000466372
0.00139978
0.000389972
0.00108076
0.000319027
0.000824165
0.000256594
0.00062211
0.000202055
0.000467672
0.000154439
0.000354253
0.000113419
0.000275468
7.87857e-05
0.000225734
4.97337e-05
0.000200238
2.54974e-05
0.000194071
6.16581e-06
0.000201712
-7.63947e-06
0.000219696
-1.79852e-05
0.000245322
-2.56247e-05
0.000275812
-3.04906e-05
0.000308293
-3.24799e-05
0.000340922
-3.26294e-05
0.000372204
-3.12814e-05
0.000401075
-2.88711e-05
0.000426848
-2.57723e-05
0.000449358
-2.25108e-05
0.000468675
-1.93162e-05
0.000484869
-1.61941e-05
0.000498169
-1.3299e-05
0.000508942
-1.07743e-05
0.000517563
-8.62051e-06
0.000524416
-6.85304e-06
0.0005298
-5.3833e-06
0.000533981
-4.18106e-06
0.000537196
-3.21452e-06
0.000539642
-2.44654e-06
0.000541483
-1.84119e-06
0.000542844
-1.36069e-06
-1.05294e-06
0.00336589
0.000282521
0.00335314
0.000518866
0.00323659
0.000544452
0.00306177
0.000504675
0.00285785
0.000445674
0.00265512
0.000373249
0.00247462
0.000299549
0.00232282
0.000234417
0.00219894
0.000181415
0.00210051
0.000138441
0.00202491
0.000102515
0.00196939
7.19312e-05
0.00193212
4.44823e-05
0.00191234
1.81414e-05
0.00191014
-8.14076e-06
0.00192619
-3.61651e-05
0.00196251
-6.77917e-05
0.00202159
-0.00010399
0.00210693
-0.000146401
0.00222301
-0.000196771
0.00237535
-0.000256948
0.00257041
-0.000328691
0.0028155
-0.000413481
0.00311836
-0.000512175
0.00348663
-0.000624408
0.00392681
-0.000747796
0.00444279
-0.000876789
0.00503352
-0.00100139
0.00569017
-0.0011059
0.0063927
-0.00116994
0.00710882
-0.00116841
0.00779275
-0.00107362
0.00838503
-0.000869015
0.00882553
-0.000559652
0.00906099
-0.00017634
0.00908032
0.000216042
0.00889471
0.000569317
0.00852925
0.000860377
0.00801297
0.00107168
0.0073799
0.00119844
0.00665947
0.001252
0.00588163
0.00124422
0.00508396
0.00118764
0.00430988
0.0010931
0.00359818
0.000968295
0.00297644
0.000823794
0.00245649
0.000674393
0.00203743
0.000532478
0.00171328
0.000402935
0.00147348
0.000289541
0.00130483
0.000194142
0.00119461
0.000116392
0.00113232
5.46449e-05
0.00110778
6.55381e-06
0.00111014
-2.79824e-05
0.00113097
-5.13241e-05
0.00116355
-6.50551e-05
0.00120212
-7.11959e-05
0.00124343
-7.25983e-05
0.00128415
-6.95911e-05
0.00132229
-6.39059e-05
0.0013568
-5.70181e-05
0.00138704
-4.95607e-05
0.00141299
-4.21432e-05
0.00143483
-3.51349e-05
0.00145289
-2.88429e-05
0.00146765
-2.33786e-05
0.00147952
-1.87237e-05
0.00148896
-1.48235e-05
0.00149639
-1.16052e-05
0.00150216
-8.98912e-06
0.0015066
-6.88694e-06
0.00150997
-5.20629e-06
0.0015125
-3.89067e-06
-2.75964e-06
0.00332669
0.000155836
0.00346353
0.00038202
0.00353226
0.000475724
0.00354263
0.000494311
0.00350846
0.000479843
0.00344053
0.000441181
0.00335039
0.000389687
0.00324872
0.000336089
0.00314748
0.00028265
0.0030553
0.000230621
0.00297605
0.00018177
0.00291096
0.000137015
0.00286093
9.45136e-05
0.00282696
5.21126e-05
0.00281051
8.31022e-06
0.00281301
-3.86642e-05
0.00283627
-9.10525e-05
0.00288287
-0.000150588
0.0029562
-0.000219731
0.00306041
-0.000300985
0.00320074
-0.000397273
0.00338347
-0.000511421
0.00361594
-0.000645954
0.00390646
-0.000802699
0.004264
-0.000981951
0.00469768
-0.00118147
0.00521553
-0.00139464
0.00582243
-0.00160828
0.00651676
-0.00180023
0.00728703
-0.00194022
0.00810368
-0.00198506
0.00891518
-0.00188511
0.00965039
-0.00160422
0.0102264
-0.00113571
0.0105899
-0.000539783
0.0107372
6.8764e-05
0.0106814
0.000625087
0.0104595
0.0010823
0.0101097
0.00142146
0.0096592
0.00164894
0.00911558
0.00179563
0.00848567
0.00187412
0.00778504
0.00188827
0.0070369
0.00184125
0.00626648
0.00173871
0.00550157
0.0015887
0.00477405
0.00140191
0.00411606
0.00119047
0.00355151
0.00096749
0.00309089
0.000750158
0.00273322
0.000551808
0.00246864
0.000380972
0.00228346
0.000239828
0.00216206
0.000127951
0.00209047
4.36123e-05
0.00205603
-1.68838e-05
0.00204812
-5.71443e-05
0.00205773
-8.08058e-05
0.00207861
-9.34771e-05
0.00210488
-9.5865e-05
0.00213309
-9.21118e-05
0.00216142
-8.53528e-05
0.00218799
-7.61232e-05
0.00221194
-6.60989e-05
0.00223292
-5.61141e-05
0.00225085
-4.67728e-05
0.00226586
-3.83912e-05
0.00227822
-3.1079e-05
0.00228824
-2.48456e-05
0.00229627
-1.96302e-05
0.00230261
-1.53331e-05
0.00230757
-1.18431e-05
0.00231137
-9.01181e-06
0.00231431
-6.82683e-06
-4.74525e-06
0.00326329
9.25448e-05
0.00339104
0.000254273
0.00350827
0.000358495
0.00359184
0.000410742
0.00364539
0.00042629
0.00367076
0.000415809
0.00366987
0.000390576
0.0036491
0.000356862
0.00361643
0.00031532
0.00357732
0.000269736
0.00353492
0.000224171
0.00349393
0.000178005
0.00345827
0.000130167
0.00343091
7.94796e-05
0.00341467
2.45452e-05
0.003412
-3.59941e-05
0.00342496
-0.000104007
0.00345612
-0.000181752
0.0035091
-0.000272704
0.00358754
-0.000379432
0.00369617
-0.000505904
0.00384168
-0.000656929
0.00403201
-0.000836279
0.00427687
-0.00104756
0.00458809
-0.00129316
0.00497948
-0.00157287
0.00546642
-0.00188158
0.00606427
-0.00220613
0.00678546
-0.00252142
0.00763618
-0.00279093
0.00857799
-0.00292688
0.00951174
-0.00281886
0.0103183
-0.00241075
0.0109031
-0.00172053
0.0112493
-0.000886019
0.0113534
-3.53014e-05
0.0112568
0.00072172
0.0110323
0.00130676
0.0107286
0.00172513
0.0103674
0.00201018
0.00995485
0.00220816
0.00949217
0.00233681
0.00897837
0.00240207
0.00841574
0.00240388
0.00780971
0.00234475
0.00717299
0.00222542
0.00651746
0.00205745
0.00586315
0.00184477
0.00523797
0.00159267
0.00467019
0.00131794
0.00418023
0.00104177
0.00377806
0.000783142
0.00346343
0.000554455
0.00322814
0.000363248
0.00306014
0.000211604
0.00294615
9.71144e-05
0.00287392
1.50856e-05
0.00283292
-3.98106e-05
0.00281305
-7.36094e-05
0.00280788
-9.06925e-05
0.00281231
-9.65435e-05
0.00282195
-9.49872e-05
0.00283442
-8.85976e-05
0.00284813
-7.98022e-05
0.00286168
-6.96686e-05
0.00287428
-5.93745e-05
0.00288551
-4.96167e-05
0.00289521
-4.07827e-05
0.00290341
-3.30458e-05
0.00291021
-2.64258e-05
0.00291574
-2.08659e-05
0.00292018
-1.6284e-05
0.00292367
-1.25006e-05
0.00292644
-9.6014e-06
-6.67696e-06
0.00323351
5.90363e-05
0.00331607
0.000171715
0.0034169
0.000257663
0.00351458
0.000313059
0.0035981
0.000342772
0.00366238
0.000351529
0.00370789
0.000345068
0.00373826
0.000326493
0.00375636
0.000297218
0.0037634
0.0002627
0.00376199
0.000225575
0.00375577
0.000184228
0.00374772
0.000138219
0.00374067
8.65325e-05
0.00373707
2.81376e-05
0.00373905
-3.79714e-05
0.00374877
-0.00011373
0.00376867
-0.000201645
0.00380192
-0.000305958
0.00385236
-0.000429867
0.00392484
-0.000578388
0.00402611
-0.000758203
0.0041647
-0.000974864
0.00435208
-0.00123494
0.00460373
-0.00154481
0.00494004
-0.00190918
0.00538693
-0.00232847
0.00597634
-0.00279554
0.00674549
-0.00329056
0.00771419
-0.00375964
0.00873816
-0.00395085
0.00964195
-0.00372264
0.0103359
-0.00310466
0.0107134
-0.00209809
0.0108045
-0.000977109
0.0107147
5.44778e-05
0.0105083
0.000928142
0.0102542
0.00156087
0.0100237
0.00195566
0.00979721
0.00223664
0.00954377
0.00246159
0.00925975
0.00262082
0.00894526
0.00271657
0.00858297
0.00276617
0.00815939
0.00276833
0.00769574
0.00268907
0.00720133
0.00255186
0.00669191
0.00235419
0.00618192
0.00210266
0.0056839
0.00181597
0.00521387
0.00151179
0.00479054
0.00120647
0.00442678
0.000918212
0.00412753
0.000662501
0.00389079
0.000448342
0.00371016
0.000277748
0.00357691
0.000148336
0.00348194
5.51569e-05
0.00341638
-8.0487e-06
0.00337384
-4.81517e-05
0.00334771
-7.04117e-05
0.00333272
-7.99977e-05
0.00332568
-8.15636e-05
0.00332385
-7.79662e-05
0.00332533
-7.11474e-05
0.00332883
-6.28799e-05
0.00333333
-5.41094e-05
0.00333808
-4.55364e-05
0.00334266
-3.76223e-05
0.00334682
-3.05924e-05
0.00335047
-2.45099e-05
0.00335356
-1.93828e-05
0.00335612
-1.50531e-05
0.00335823
-1.17111e-05
-8.19872e-06
0.00321906
3.99798e-05
0.00327124
0.000119534
0.00334347
0.000185427
0.00342374
0.000232791
0.00350365
0.000262868
0.00357716
0.000278015
0.00364149
0.000280741
0.00369524
0.00027274
0.00373727
0.000255189
0.00376932
0.000230653
0.00379385
0.000201044
0.00381234
0.000165737
0.00382655
0.000124009
0.00383737
7.57171e-05
0.00384538
2.0127e-05
0.00385239
-4.49838e-05
0.00386024
-0.00012158
0.00387103
-0.000212431
0.00388701
-0.000321941
0.00391205
-0.000454905
0.00395053
-0.000616865
0.00400771
-0.00081538
0.00409197
-0.00105913
0.00421551
-0.00135848
0.0043962
-0.00172551
0.00466031
-0.00217329
0.00504581
-0.00271397
0.00560649
-0.00335623
0.00640657
-0.00409065
0.00735759
-0.00471066
0.00813755
-0.00473081
0.00857922
-0.00416431
0.00862168
-0.00314712
0.00809363
-0.00157004
0.00745225
-0.000335723
0.00709172
0.000415
0.00697707
0.00104279
0.00700095
0.00153699
0.00718747
0.00176914
0.00743512
0.00198898
0.00765599
0.00224072
0.00779303
0.00248379
0.00782117
0.00268842
0.00775155
0.00283578
0.00759834
0.00292155
0.00736899
0.00291841
0.00707955
0.0028413
0.00674663
0.00268712
0.00638361
0.00246568
0.00600956
0.00219001
0.00564219
0.00187916
0.00529388
0.00155478
0.00497536
0.00123673
0.0046933
0.000944559
0.00445126
0.000690383
0.00425032
0.000478686
0.00408849
0.000310163
0.00396161
0.000182041
0.00386447
8.90893e-05
0.00379165
2.46742e-05
0.00373857
-1.73321e-05
0.00370107
-4.24994e-05
0.00367522
-5.57149e-05
0.00365793
-6.06817e-05
0.00364693
-6.01465e-05
0.00364037
-5.63124e-05
0.00363689
-5.06348e-05
0.00363551
-4.41582e-05
0.00363546
-3.75713e-05
0.00363617
-3.13012e-05
0.00363725
-2.55852e-05
0.00363844
-2.05807e-05
0.00363961
-1.6214e-05
0.00364066
-1.27639e-05
-9.01827e-06
0.00321188
2.81035e-05
0.00324652
8.48898e-05
0.00329774
0.000134207
0.0033586
0.00017193
0.00342362
0.000197852
0.00348867
0.00021297
0.00355095
0.000218453
0.00360833
0.000215369
0.00365892
0.000204594
0.00370235
0.000187227
0.00373931
0.000164084
0.00377004
0.000135002
0.00379459
9.94669e-05
0.00381339
5.6911e-05
0.00382695
6.56682e-06
0.00383557
-5.36033e-05
0.00384023
-0.000126234
0.00384222
-0.000214421
0.0038425
-0.000322221
0.0038425
-0.000454911
0.00384494
-0.000619301
0.00385384
-0.000824282
0.00387597
-0.00108125
0.00392236
-0.00140487
0.00401087
-0.00181402
0.00417031
-0.00233273
0.00444642
-0.00299008
0.00490506
-0.00381486
0.00558836
-0.00477395
0.00610906
-0.00523136
0.00570686
-0.0043286
0.00361892
-0.00182772
0.00135716
-2.7545e-18
0.000248983
-3.12607e-18
-1.92827e-05
-3.4189e-18
0.000107893
-3.70336e-18
0.000489106
-4.46349e-18
0.00115274
0.000159441
0.00209252
0.000829357
0.00311939
0.000962106
0.00404564
0.00131448
0.00482117
0.00170825
0.00540587
0.00210372
0.00580092
0.00244074
0.0060474
0.00267507
0.00616338
0.00280243
0.00617472
0.00282997
0.00610323
0.0027586
0.00596317
0.00260574
0.00577495
0.00237823
0.00555771
0.0020964
0.00532685
0.00178564
0.00509678
0.0014668
0.00488042
0.00116092
0.00468495
0.000885855
0.00451304
0.000650599
0.00436494
0.000458263
0.00424025
0.000306729
0.00413755
0.000191787
0.00405481
0.00010742
0.00398965
4.78265e-05
0.00393951
7.64273e-06
0.00390172
-1.79323e-05
0.00387383
-3.27898e-05
0.00385369
-4.00093e-05
0.00383943
-4.20491e-05
0.00382956
-4.07618e-05
0.00382291
-3.75099e-05
0.00381859
-3.32476e-05
0.0038159
-2.86155e-05
0.00381433
-2.40151e-05
0.00381349
-1.97429e-05
0.00381311
-1.5832e-05
0.003813
-1.26493e-05
-9.05522e-06
0.00320815
1.99521e-05
0.00323257
6.04737e-05
0.00327003
9.67469e-05
0.00331633
0.00012563
0.00336784
0.000146337
0.0034216
0.000159219
0.00347521
0.000164843
0.0035268
0.000163775
0.00357487
0.000156532
0.00361841
0.00014368
0.00365692
0.000125582
0.0036898
0.000102113
0.00371644
7.28329e-05
0.0037364
3.69526e-05
0.00374958
-6.61439e-06
0.00375555
-5.95781e-05
0.00375372
-0.000124401
0.00374357
-0.000204266
0.00372468
-0.000303334
0.00369689
-0.00042712
0.00366055
-0.000582964
0.003617
-0.000780728
0.0035695
-0.00103375
0.00352483
-0.00136019
0.00349587
-0.00178506
0.00350594
-0.0023428
0.00359493
-0.00307907
0.00380844
-0.00402838
0.00396671
-0.00493221
0.0030564
-0.00432105
0.000716942
-0.000827731
-5.06039e-19
-7.30963e-19
2.07354e-20
-2.6524e-19
1.31267e-19
-6.4529e-20
2.07459e-20
-4.58773e-20
-6.40717e-20
-1.00837e-20
-6.15802e-20
1.03992e-20
-0.000265374
-1.31958e-18
-0.00128339
-2.7513e-18
-0.000496813
0.000175521
0.000536423
0.000281241
0.00156202
0.000682658
0.00248095
0.00118479
0.0032475
0.00167418
0.00384451
0.00207806
0.00428131
0.00236563
0.00459367
0.00251761
0.00480444
0.00254783
0.00493013
0.00248005
0.00498448
0.00232388
0.00497874
0.00210214
0.00492716
0.00183722
0.00484287
0.00155109
0.00473925
0.00126454
0.00462862
0.000996489
0.00451953
0.00075969
0.00441654
0.000561251
0.00432308
0.000400189
0.00424119
0.000273669
0.0041712
0.000177412
0.00411272
0.000106307
0.00406487
5.5493e-05
0.00402654
2.03965e-05
0.00399646
-2.70284e-06
0.00397329
-1.68461e-05
0.00395573
-2.44827e-05
0.00394259
-2.76208e-05
0.00393288
-2.7807e-05
0.00392581
-2.61764e-05
0.00392073
-2.353e-05
0.00391712
-2.04074e-05
0.00391459
-1.72171e-05
0.00391285
-1.40906e-05
0.00391166
-1.14567e-05
-8.33012e-06
0.00320603
1.39221e-05
0.00322424
4.22654e-05
0.00325286
6.81269e-05
0.00328919
8.92982e-05
0.00333061
0.000104919
0.00337487
0.000114955
0.00342007
0.000119651
0.00346452
0.000119325
0.0035068
0.000114257
0.00354577
0.000104706
0.00358054
9.0813e-05
0.00361022
7.24368e-05
0.00363383
4.92184e-05
0.00365035
2.04287e-05
0.00365874
-1.49974e-05
0.00365776
-5.8599e-05
0.00364592
-0.00011256
0.00362144
-0.000179783
0.00358227
-0.000264163
0.00352608
-0.000370937
0.00345036
-0.000507238
0.00335254
-0.000682908
0.00323049
-0.000911707
0.00308354
-0.00121324
0.00291416
-0.00161567
0.00273059
-0.00215924
0.00254606
-0.00289453
0.00228732
-0.00376964
0.00145626
-0.00410115
-0.000149512
-0.00142033
1.45382e-18
7.79555e-19
2.24915e-19
-1.69713e-19
1.88139e-19
3.12472e-20
6.76629e-21
-5.13376e-20
1.19087e-21
-8.21889e-22
2.82841e-24
9.80913e-24
-4.70109e-20
-1.30445e-20
-2.56175e-19
-1.11092e-20
8.31532e-19
1.05501e-20
-0.00209667
-2.14975e-18
-0.00153274
-0.000282695
-0.000748897
-0.000101182
5.90796e-05
0.000376816
0.000831724
0.000901537
0.00153976
0.00137002
0.0021654
0.00173999
0.00269967
0.00198334
0.00314207
0.00210543
0.00350436
0.00211777
0.0037904
0.00203784
0.00400556
0.00188697
0.00415671
0.00168607
0.00425234
0.00145547
0.0043021
0.00121478
0.00431643
0.000982158
0.00430566
0.000770462
0.00427945
0.000587465
0.00424459
0.000435047
0.00420639
0.00031187
0.0041684
0.000215399
0.00413292
0.000141788
0.00410112
8.72918e-05
0.00407349
4.8032e-05
0.0040501
2.0685e-05
0.00403066
2.58852e-06
0.00401483
-8.6476e-06
0.00400209
-1.48811e-05
0.00399198
-1.76998e-05
0.00398407
-1.82607e-05
0.00397793
-1.73963e-05
0.00397323
-1.57034e-05
0.00396965
-1.36393e-05
0.00396696
-1.14038e-05
0.00396493
-9.4216e-06
-6.9532e-06
0.00320474
9.18399e-06
0.0032191
2.79068e-05
0.00324202
4.52e-05
0.0032717
5.96236e-05
0.00330614
7.04742e-05
0.00334351
7.75858e-05
0.00338214
8.10222e-05
0.00342053
8.09456e-05
0.00345729
7.74931e-05
0.00349122
7.07755e-05
0.00352121
6.08193e-05
0.00354617
4.74778e-05
0.00356494
3.04564e-05
0.00357601
9.35482e-06
0.0035779
-1.68882e-05
0.00356874
-4.94383e-05
0.0035462
-9.00195e-05
0.0035074
-0.000140982
0.00344874
-0.000205497
0.0033657
-0.000287903
0.00325269
-0.000394225
0.00310273
-0.000532949
0.00290729
-0.000716259
0.00265605
-0.000962004
0.00233716
-0.00129679
0.00193776
-0.00175983
0.00143201
-0.00238877
0.000678693
-0.00301632
-0.000851865
-0.00257059
2.66106e-18
1.52646e-18
5.90564e-19
4.95464e-19
1.01508e-19
9.72151e-20
-2.74518e-20
-3.40374e-20
-1.25216e-22
-1.244e-21
6.99442e-25
2.64137e-26
1.51889e-24
2.06212e-26
3.61854e-24
6.03201e-26
1.65353e-21
1.76756e-25
-2.60998e-19
1.15534e-21
9.58829e-19
-3.3534e-20
-0.00232937
-0.000225522
-0.00197777
-0.000452779
-0.00148824
-0.000112714
-0.000931702
0.000344998
-0.000336743
0.00077506
0.000273443
0.00112981
0.00087436
0.00138243
0.00144705
0.00153274
0.00197626
0.00158855
0.00244893
0.00156518
0.00285704
0.00147886
0.00319688
0.00134623
0.00346912
0.00118323
0.00367818
0.00100571
0.00383152
0.000828816
0.00393834
0.000663646
0.00400875
0.000517056
0.00405175
0.000392045
0.00407473
0.00028889
0.00408383
0.000206303
0.00408373
0.000141884
0.00407794
9.30784e-05
0.00406898
5.69909e-05
0.00405864
3.10253e-05
0.00404799
1.32439e-05
0.00403773
1.60933e-06
0.0040283
-5.45113e-06
0.00401997
-9.36895e-06
0.00401283
-1.11206e-05
0.00400684
-1.14087e-05
0.00400192
-1.07777e-05
0.00399792
-9.64717e-06
0.00399476
-8.23578e-06
0.00399224
-6.90394e-06
-5.164e-06
0.00320396
5.22727e-06
0.00321597
1.58936e-05
0.00323535
2.58229e-05
0.00326077
3.42017e-05
0.00329066
4.05804e-05
0.00332344
4.48103e-05
0.00335757
4.68896e-05
0.00339164
4.68857e-05
0.00342427
4.48553e-05
0.00345421
4.08427e-05
0.00348019
3.48348e-05
0.00350096
2.6706e-05
0.00351522
1.62019e-05
0.00352127
3.30658e-06
0.00351723
-1.28483e-05
0.00350075
-3.29631e-05
0.0034689
-5.81702e-05
0.00341792
-9.00009e-05
0.00334295
-0.000130519
0.00323764
-0.000182594
0.00309368
-0.000250259
0.0029
-0.000339272
0.00264177
-0.000458025
0.00229882
-0.000619046
0.00184349
-0.00084146
0.00123688
-0.00115321
0.000420091
-0.00157198
-0.000646434
-0.00194979
2.664e-18
-0.000944827
2.41786e-18
1.15931e-18
5.9175e-20
-9.48652e-20
-5.46786e-20
-5.78212e-20
-1.0838e-20
-1.58137e-20
2.37854e-25
9.65019e-27
4.5455e-25
-8.23703e-28
1.04379e-24
-2.54024e-29
2.27095e-24
4.01342e-26
4.94733e-24
6.48768e-26
-1.6611e-19
1.0905e-25
3.32811e-20
-1.75681e-20
-0.00244166
-5.60558e-05
-0.00246237
-0.000432066
-0.00233921
-0.00023588
-0.00205469
6.04768e-05
-0.00163727
0.000357645
-0.00112181
0.000614351
-0.000541554
0.000802169
6.99615e-05
0.000921221
0.000681241
0.000977273
0.00126628
0.000980137
0.00180585
0.000939285
0.00228633
0.00086575
0.0027005
0.000769058
0.00304567
0.000660549
0.00332328
0.000551202
0.00353959
0.000447337
0.00370329
0.00035336
0.00382352
0.000271809
0.00390891
0.000203503
0.00396722
0.000147995
0.00400501
0.000104089
0.00402779
7.03032e-05
0.00403981
4.49726e-05
0.00404438
2.64481e-05
0.00404417
1.34542e-05
0.00404107
4.71434e-06
0.00403626
-6.43277e-07
0.00403077
-3.87915e-06
0.00402524
-5.59536e-06
0.00402008
-6.24236e-06
0.00401547
-6.17222e-06
0.0040115
-5.67375e-06
0.00400819
-4.9276e-06
0.00400546
-4.17786e-06
-3.15775e-06
0.00320353
1.70148e-06
0.00321426
5.15842e-06
0.00323169
8.39908e-06
0.00325473
1.11572e-05
0.00328205
1.32593e-05
0.0033122
1.46602e-05
0.00334374
1.53549e-05
0.00337527
1.53598e-05
0.00340543
1.46895e-05
0.00343292
1.33565e-05
0.0034564
1.13546e-05
0.00347447
8.63672e-06
0.0034856
5.06701e-06
0.00348823
6.81765e-07
0.00348016
-4.77922e-06
0.00345874
-1.15414e-05
0.00342065
-2.0082e-05
0.00336156
-3.09121e-05
0.00327578
-4.47348e-05
0.00315574
-6.25524e-05
0.00299127
-8.57839e-05
0.00276847
-0.000116466
0.00246803
-0.000157586
0.00206262
-0.000213632
0.00151262
-0.000291459
0.000760092
-0.000400672
-0.000266984
-0.000544896
-0.00154314
-0.000673623
5.44853e-18
-0.000215777
1.24041e-18
-4.49831e-19
8.88516e-20
-1.81392e-19
-5.39465e-20
-1.64958e-20
-3.87667e-21
-2.32114e-21
1.89618e-25
-3.23988e-28
3.88099e-25
-5.96865e-29
8.6057e-25
2.2522e-26
1.55692e-24
2.74637e-27
3.39828e-24
8.30179e-27
-1.26932e-19
2.77783e-26
-6.35721e-19
-3.5943e-21
-0.0023242
-4.04612e-06
-0.00259507
-0.000161195
-0.00272279
-0.000108159
-0.00265418
-8.14145e-06
-0.00239261
9.60798e-05
-0.00197017
0.000191908
-0.001429
0.000261004
-0.000813999
0.000306217
-0.00016569
0.000328965
0.000481251
0.000333195
0.0010985
0.00032204
0.00166526
0.000298981
0.00216716
0.000267161
0.00259791
0.000229798
0.00295632
0.000192796
0.00324571
0.000157947
0.00347352
0.000125552
0.00364813
9.71901e-05
0.00377835
7.32833e-05
0.00387263
5.37231e-05
0.00393857
3.8149e-05
0.00398279
2.60826e-05
0.00401078
1.69766e-05
0.00402696
1.0272e-05
0.0040349
5.51658e-06
0.00403738
2.22548e-06
0.00403649
2.54416e-07
0.00403358
-9.67937e-07
0.00402962
-1.63688e-06
0.00402532
-1.94548e-06
0.00402114
-1.99092e-06
0.00401733
-1.86578e-06
0.00401404
-1.63648e-06
0.00401126
-1.39609e-06
-1.0613e-06
0.00320338
-1.67963e-06
0.00321368
-5.1436e-06
0.00323047
-8.38322e-06
0.00325276
-1.11406e-05
0.00327927
-1.32429e-05
0.00330857
-1.46422e-05
0.00333926
-1.53339e-05
0.00336996
-1.5335e-05
0.00339931
-1.46601e-05
0.00342598
-1.33217e-05
0.00344865
-1.13138e-05
0.00346588
-8.58873e-06
0.00347596
-5.01182e-06
0.00347726
-6.18963e-07
0.00346763
4.84637e-06
0.00344448
1.16121e-05
0.00340424
2.01562e-05
0.00334235
3.09881e-05
0.0032528
4.48105e-05
0.00312763
6.2625e-05
0.00295599
8.58514e-05
0.002723
0.000116526
0.00240779
0.000157637
0.00198049
0.00021367
0.00139755
0.000291486
0.000596204
0.000400678
-0.000493559
0.000544875
-0.00184082
0.000673644
5.0124e-18
0.000215594
9.65062e-19
4.48937e-19
1.15915e-19
1.81365e-19
-5.17354e-20
1.64806e-20
-1.80653e-21
2.32124e-21
1.69014e-25
3.27494e-28
3.9784e-25
1.58772e-28
6.91585e-25
-2.81146e-26
1.44969e-24
-2.91357e-27
3.20209e-24
-8.34104e-27
-1.32146e-19
-2.77657e-26
-7.69816e-19
3.27806e-21
-0.0022803
4.06069e-06
-0.00260368
0.000162182
-0.00282104
0.000109203
-0.00283819
9.00816e-06
-0.00264647
-9.56422e-05
-0.00226273
-0.000191824
-0.00174051
-0.000261219
-0.00112766
-0.00030664
-0.000469189
-0.000329502
0.000197781
-0.000333775
0.000842423
-0.000322603
0.00144089
-0.000299482
0.00197561
-0.000267562
0.00243549
-0.000230086
0.00282127
-0.000192986
0.00313728
-0.000158064
0.00338845
-0.00012561
0.00358284
-9.72047e-05
0.0037294
-7.32729e-05
0.00383682
-5.37008e-05
0.00391309
-3.81243e-05
0.00396524
-2.60606e-05
0.00399917
-1.69606e-05
0.00401971
-1.02627e-05
0.00403074
-5.51357e-06
0.00403519
-2.22705e-06
0.0040357
-2.59169e-07
0.00403377
9.6138e-07
0.00403051
1.62966e-06
0.00402662
1.93832e-06
0.00402265
1.98406e-06
0.00401892
1.85943e-06
0.00401566
1.63087e-06
0.00401287
1.39107e-06
1.05761e-06
0.00320353
-5.20501e-06
0.00321426
-1.58794e-05
0.00323169
-2.58076e-05
0.00325473
-3.41853e-05
0.00328205
-4.05641e-05
0.0033122
-4.47923e-05
0.00334374
-4.68689e-05
0.00337527
-4.68611e-05
0.00340543
-4.48263e-05
0.00343292
-4.08083e-05
0.0034564
-3.47944e-05
0.00347447
-2.66586e-05
0.0034856
-1.61476e-05
0.00348823
-3.24526e-06
0.00348016
1.2915e-05
0.00345874
3.30338e-05
0.00342066
5.82442e-05
0.00336157
9.00765e-05
0.00327579
0.000130594
0.00315575
0.000182667
0.00299128
0.000250326
0.00276847
0.000339333
0.00246804
0.000458078
0.00206262
0.000619089
0.00151262
0.000841494
0.000760084
0.00115322
-0.000267012
0.00157198
-0.00154316
0.0019498
5.44775e-18
0.000944627
1.24022e-18
-1.16275e-18
8.88843e-20
9.47617e-20
-5.39635e-20
5.7785e-20
-3.87821e-21
1.58073e-20
1.88595e-25
-9.63256e-27
3.82872e-25
9.03553e-28
8.58935e-25
2.43483e-28
1.55692e-24
-4.01409e-26
3.39835e-24
-6.48299e-26
-1.2693e-19
-1.08964e-25
-6.35674e-19
1.75891e-20
-0.0023243
5.61704e-05
-0.00259528
0.000433159
-0.00272308
0.000236999
-0.00265433
-5.97363e-05
-0.00239265
-0.000357328
-0.00197006
-0.000614406
-0.00142879
-0.000802495
-0.000813716
-0.00092171
-0.000165382
-0.000977836
0.000481553
-0.000980709
0.00109877
-0.000939817
0.00166549
-0.000866205
0.00216734
-0.000769412
0.00259805
-0.000660797
0.00295642
-0.000551359
0.00324578
-0.000447422
0.00347356
-0.000353392
0.00364816
-0.000271807
0.00377837
-0.000203481
0.00387264
-0.000147967
0.00393858
-0.000104061
0.00398279
-7.02799e-05
0.00401079
-4.4956e-05
0.00402697
-2.64384e-05
0.0040349
-1.34506e-05
0.00403739
-4.71549e-06
0.00403649
6.3913e-07
0.00403358
3.87362e-06
0.00402962
5.58899e-06
0.00402532
6.23582e-06
0.00402114
6.16597e-06
0.00401733
5.66794e-06
0.00401404
4.9224e-06
0.00401126
4.17317e-06
3.1543e-06
0.00320396
-9.16221e-06
0.00321597
-2.78931e-05
0.00323535
-4.51851e-05
0.00326077
-5.96074e-05
0.00329067
-7.04581e-05
0.00332344
-7.75682e-05
0.00335758
-8.10019e-05
0.00339164
-8.09216e-05
0.00342427
-7.74647e-05
0.00345421
-7.0742e-05
0.00348019
-6.07797e-05
0.00350097
-4.7432e-05
0.00351522
-3.04037e-05
0.00352127
-9.29535e-06
0.00351724
1.69534e-05
0.00350076
4.95082e-05
0.00346892
9.00925e-05
0.00341794
0.000141057
0.00334296
0.000205571
0.00323766
0.000287975
0.0030937
0.000394292
0.00290002
0.000533012
0.00264179
0.000716315
0.00229883
0.000962052
0.0018435
0.00129683
0.00123687
0.00175986
0.000420085
0.00238877
-0.000646263
0.00301616
2.6696e-18
0.00257056
2.42148e-18
-1.53176e-18
5.9234e-20
-4.9963e-19
-5.46731e-20
-9.71519e-20
-1.08355e-20
3.40243e-20
2.37771e-25
1.24387e-21
4.5458e-25
-2.64025e-26
1.04378e-24
-2.05223e-26
2.27104e-24
-6.02713e-26
4.94756e-24
-1.76631e-25
-1.65779e-19
-1.19345e-21
3.46558e-20
3.35033e-20
-0.0024422
0.000226178
-0.00246285
0.000453812
-0.00233965
0.000113799
-0.00205495
-0.000344438
-0.00163728
-0.000775002
-0.00112158
-0.00113011
-0.000541151
-0.00138292
7.04555e-05
-0.00153332
0.000681757
-0.00158914
0.00126677
-0.00156572
0.00180628
-0.00147933
0.00228669
-0.00134661
0.00270078
-0.00118351
0.00304587
-0.00100589
0.00332342
-0.000828912
0.00353968
-0.000663682
0.00370334
-0.000517053
0.00382356
-0.00039202
0.00390893
-0.000288855
0.00396723
-0.000206268
0.00400503
-0.000141854
0.0040278
-9.30546e-05
0.00403982
-5.69745e-05
0.0040444
-3.10156e-05
0.00404418
-1.32398e-05
0.00404108
-1.60931e-06
0.00403627
5.4485e-06
0.00403078
9.36475e-06
0.00402525
1.11157e-05
0.00402008
1.14035e-05
0.00401548
1.07726e-05
0.0040115
9.64234e-06
0.00400819
8.23133e-06
0.00400547
6.89987e-06
5.16097e-06
0.00320474
-1.39024e-05
0.0032191
-4.22516e-05
0.00324203
-6.81122e-05
0.0032717
-8.92825e-05
0.00330615
-0.000104903
0.00334352
-0.000114938
0.00338215
-0.000119631
0.00342053
-0.000119302
0.00345729
-0.000114229
0.00349122
-0.000104673
0.00352122
-9.07749e-05
0.00354618
-7.23929e-05
0.00356494
-4.91679e-05
0.00357602
-2.03718e-05
0.00357791
1.50607e-05
0.00356876
5.86669e-05
0.00354622
0.000112631
0.00350742
0.000179855
0.00344876
0.000264235
0.00336573
0.000371006
0.00325272
0.000507305
0.00310276
0.000682971
0.00290732
0.000911767
0.00265608
0.00121329
0.00233718
0.00161572
0.00193777
0.00215928
0.00143199
0.00289456
0.000678795
0.00376937
-0.000851837
0.0041012
2.67308e-18
0.00142036
5.95636e-19
-7.86742e-19
1.01568e-19
1.68228e-19
-2.74511e-20
-3.13461e-20
-1.25215e-22
5.133e-20
6.99776e-25
8.22194e-22
1.51917e-24
-9.76431e-24
3.61911e-24
1.30893e-20
1.59325e-21
1.11122e-20
-2.58478e-19
-1.02255e-20
9.66175e-19
2.15081e-18
-0.00232967
0.000283658
-0.00197819
0.000102332
-0.00148853
-0.000375865
-0.000931731
-0.000901236
-0.000336476
-0.00137026
0.000273936
-0.00174052
0.000874975
-0.00198396
0.00144769
-0.00210604
0.00197687
-0.00211831
0.00244946
-0.00203831
0.00285749
-0.00188735
0.00319723
-0.00168635
0.00346937
-0.00145565
0.00367835
-0.00121487
0.00383163
-0.00098219
0.0039384
-0.000770452
0.00400878
-0.000587433
0.00405177
-0.000435006
0.00407474
-0.00031183
0.00408384
-0.000215363
0.00408374
-0.00014176
0.00407796
-8.72708e-05
0.004069
-4.80177e-05
0.00405866
-2.06759e-05
0.00404801
-2.58376e-06
0.00403775
8.64912e-06
0.00402832
1.48803e-05
0.00401998
1.76974e-05
0.00401284
1.82575e-05
0.00400685
1.73927e-05
0.00400192
1.56997e-05
0.00399793
1.36357e-05
0.00399476
1.14003e-05
0.00399224
9.4183e-06
6.95071e-06
0.00320603
-1.99342e-05
0.00322424
-6.04605e-05
0.00325286
-9.67322e-05
0.00328919
-0.000125614
0.00333061
-0.000146322
0.00337488
-0.000159203
0.00342007
-0.000164824
0.00346452
-0.000163753
0.0035068
-0.000156505
0.00354577
-0.000143649
0.00358054
-0.000125546
0.00361022
-0.000102071
0.00363384
-7.27852e-05
0.00365037
-3.68988e-05
0.00365875
6.67427e-06
0.00365778
5.96428e-05
0.00364594
0.000124469
0.00362146
0.000204334
0.0035823
0.000303402
0.00352612
0.000427187
0.0034504
0.000583029
0.00335258
0.000780791
0.00323054
0.00103381
0.00308359
0.00136025
0.00291421
0.00178511
0.00273062
0.00234286
0.00254618
0.00307901
0.00228713
0.00402842
0.00145586
0.00493248
-0.000149885
0.00432105
1.4611e-18
0.000827358
2.27234e-19
7.28999e-19
1.881e-19
2.65172e-19
6.76906e-21
6.45367e-20
1.19096e-21
4.58557e-20
2.8282e-24
1.00633e-20
-4.71961e-20
-1.02638e-20
-2.54637e-19
1.33245e-18
8.31518e-19
2.74422e-18
-0.00209624
-0.00017595
-0.00153266
-0.000279922
-0.000748863
-0.000681468
5.93071e-05
-0.00118403
0.000832276
-0.0016742
0.00154051
-0.00207849
0.0021662
-0.0023662
0.00270042
-0.00251819
0.00314272
-0.00254833
0.00350491
-0.0024805
0.00379084
-0.00232424
0.0040059
-0.00210242
0.00415696
-0.00183741
0.0042525