/*--------------------------------*- C++ -*----------------------------------*\
| =========                 |                                                 |
| \\      /  F ield         | OpenFOAM: The Open Source CFD Toolbox           |
|  \\    /   O peration     | Version:  2206                                  |
|   \\  /    A nd           | Website:  www.openfoam.com                      |
|    \\/     M anipulation  |                                                 |
\*---------------------------------------------------------------------------*/
FoamFile
{
    version     2.0;
    format      ascii;
    arch        "LSB;label=32;scalar=64";
    class       volVectorField;
    location    "0.9";
    object      U;
}
// * * * * * * * * * * * * * * * * * * * * * * * * * * * * * * * * * * * * * //

dimensions      [0 1 -1 0 0 0 0];

internalField   nonuniform List<vector> 
1875
(
(0.792516 0.0207488 0)
(0.749724 0.0857058 0)
(0.648703 0.0834099 0)
(0.51618 0.0485833 0)
(0.420557 0.0244658 0)
(0.358109 0.0131178 0)
(0.314887 0.00701228 0)
(0.284239 0.0035251 0)
(0.262801 0.00159695 0)
(0.247865 0.000516223 0)
(0.237614 -0.000160929 0)
(0.230963 -0.000670282 0)
(0.227304 -0.00113524 0)
(0.226534 -0.00163032 0)
(0.228389 -0.00229449 0)
(0.233067 -0.00308559 0)
(0.241022 -0.00404578 0)
(0.252853 -0.00523259 0)
(0.269267 -0.00672769 0)
(0.291228 -0.00860898 0)
(0.319951 -0.0109591 0)
(0.356906 -0.0138601 0)
(0.403793 -0.0173783 0)
(0.462487 -0.0215391 0)
(0.534902 -0.0262826 0)
(0.622727 -0.0314026 0)
(0.727031 -0.0364605 0)
(0.847647 -0.0406945 0)
(0.982455 -0.0429559 0)
(1.12646 -0.042418 0)
(1.2717 -0.0365891 0)
(1.40611 -0.0222808 0)
(1.51425 -0.0027166 0)
(1.5801 0.0202724 0)
(1.58795 0.0415969 0)
(1.54522 0.0650432 0)
(1.44741 0.0783061 0)
(1.30737 0.084832 0)
(1.13951 0.0817463 0)
(0.960599 0.0708781 0)
(0.784897 0.0546222 0)
(0.62832 0.0346062 0)
(0.495093 0.0176183 0)
(0.383913 0.00823781 0)
(0.293932 0.00371976 0)
(0.222443 0.00168504 0)
(0.167085 0.000666454 0)
(0.125534 8.46409e-05 0)
(0.0959403 -0.000438661 0)
(0.0762223 -0.00104703 0)
(0.0648858 -0.00167024 0)
(0.0603027 -0.00214273 0)
(0.0608894 -0.00221339 0)
(0.0651241 -0.00232371 0)
(0.0721186 -0.00240205 0)
(0.0811478 -0.00231017 0)
(0.0911054 -0.00225851 0)
(0.101398 -0.00211473 0)
(0.111468 -0.00193882 0)
(0.120925 -0.00173998 0)
(0.129502 -0.00156682 0)
(0.137063 -0.00149813 0)
(0.143596 -0.00149174 0)
(0.149155 -0.0013506 0)
(0.153836 -0.00109487 0)
(0.157427 -0.000870857 0)
(0.160448 -0.000682922 0)
(0.162894 -0.000536813 0)
(0.16479 -0.000417314 0)
(0.166271 -0.000319157 0)
(0.167416 -0.000241693 0)
(0.168291 -0.000181254 0)
(0.168953 -0.000134064 0)
(0.169455 -9.45574e-05 0)
(0.169897 -9.55404e-05 0)
(1.01389 0.122071 0)
(1.05134 0.18718 0)
(1.03877 0.178241 0)
(0.990256 0.157156 0)
(0.926687 0.128243 0)
(0.859729 0.0966241 0)
(0.799776 0.0703993 0)
(0.747777 0.0507438 0)
(0.704654 0.0365013 0)
(0.670058 0.0260254 0)
(0.643063 0.0179677 0)
(0.622749 0.0114512 0)
(0.608342 0.00575939 0)
(0.599463 0.000395658 0)
(0.596097 -0.00482782 0)
(0.598116 -0.0105655 0)
(0.606179 -0.0171206 0)
(0.620924 -0.0247577 0)
(0.643267 -0.033827 0)
(0.674448 -0.0447185 0)
(0.716036 -0.0578445 0)
(0.769912 -0.0735998 0)
(0.838236 -0.0923072 0)
(0.923377 -0.114131 0)
(1.02777 -0.138928 0)
(1.15367 -0.166054 0)
(1.30278 -0.194089 0)
(1.47566 -0.220568 0)
(1.67092 -0.241721 0)
(1.88432 -0.252639 0)
(2.10739 -0.247762 0)
(2.32963 -0.22126 0)
(2.53335 -0.169557 0)
(2.69958 -0.0940423 0)
(2.81005 -0.00302562 0)
(2.85004 0.0856079 0)
(2.8255 0.165133 0)
(2.73799 0.230435 0)
(2.59714 0.273185 0)
(2.41438 0.292493 0)
(2.20029 0.292623 0)
(1.96389 0.276516 0)
(1.71481 0.248674 0)
(1.46495 0.214012 0)
(1.2296 0.17658 0)
(1.01937 0.139592 0)
(0.840988 0.106075 0)
(0.694496 0.0774053 0)
(0.578924 0.0536001 0)
(0.491772 0.0342134 0)
(0.429246 0.0186374 0)
(0.386448 0.00643523 0)
(0.360093 -0.00260327 0)
(0.347525 -0.00928513 0)
(0.344927 -0.0140176 0)
(0.348905 -0.0170872 0)
(0.357832 -0.0183426 0)
(0.369215 -0.0185452 0)
(0.381949 -0.0177797 0)
(0.394966 -0.0164156 0)
(0.407399 -0.014658 0)
(0.418811 -0.0127547 0)
(0.428963 -0.0108432 0)
(0.437749 -0.00905234 0)
(0.445216 -0.00744425 0)
(0.451412 -0.00604504 0)
(0.456517 -0.00485347 0)
(0.460661 -0.00386042 0)
(0.463965 -0.00303504 0)
(0.466576 -0.00236022 0)
(0.468618 -0.00181657 0)
(0.470195 -0.0013832 0)
(0.471403 -0.00104046 0)
(0.4723 -0.000770361 0)
(0.47311 -0.000560963 0)
(1.01273 0.0736802 0)
(1.0601 0.147585 0)
(1.09739 0.165572 0)
(1.11048 0.162404 0)
(1.10467 0.153435 0)
(1.08791 0.138258 0)
(1.06268 0.117979 0)
(1.0317 0.0965458 0)
(0.999079 0.0771202 0)
(0.968437 0.0604149 0)
(0.941421 0.0460301 0)
(0.918786 0.0334599 0)
(0.900742 0.0219348 0)
(0.88754 0.0107557 0)
(0.879606 -0.000523207 0)
(0.877295 -0.0124102 0)
(0.881168 -0.0257567 0)
(0.891929 -0.0409124 0)
(0.910452 -0.0585244 0)
(0.93792 -0.0792979 0)
(0.975797 -0.103961 0)
(1.02588 -0.133227 0)
(1.0903 -0.167714 0)
(1.17151 -0.207801 0)
(1.2722 -0.2534 0)
(1.39523 -0.303641 0)
(1.5433 -0.356445 0)
(1.71856 -0.407991 0)
(1.92165 -0.452131 0)
(2.15065 -0.480939 0)
(2.40018 -0.483931 0)
(2.65763 -0.449865 0)
(2.90587 -0.371458 0)
(3.11619 -0.25227 0)
(3.26764 -0.104098 0)
(3.3492 0.0503418 0)
(3.36302 0.188367 0)
(3.31863 0.303969 0)
(3.22541 0.392921 0)
(3.09719 0.452455 0)
(2.94128 0.486566 0)
(2.75748 0.498553 0)
(2.54765 0.491148 0)
(2.31911 0.466832 0)
(2.0797 0.427938 0)
(1.83748 0.377268 0)
(1.60099 0.318916 0)
(1.38231 0.258119 0)
(1.1899 0.199211 0)
(1.02939 0.145911 0)
(0.902247 0.100452 0)
(0.805999 0.0633171 0)
(0.736878 0.033763 0)
(0.690269 0.0110635 0)
(0.661205 -0.00554755 0)
(0.645322 -0.0168746 0)
(0.63963 -0.023828 0)
(0.640374 -0.0270975 0)
(0.645562 -0.0284937 0)
(0.653356 -0.0277876 0)
(0.662016 -0.0257998 0)
(0.671004 -0.0231976 0)
(0.679699 -0.020278 0)
(0.687641 -0.0173342 0)
(0.694687 -0.0145303 0)
(0.700772 -0.0119824 0)
(0.705912 -0.00974561 0)
(0.710174 -0.00782746 0)
(0.71365 -0.00621297 0)
(0.71645 -0.00487668 0)
(0.718677 -0.00378638 0)
(0.720423 -0.00290758 0)
(0.721786 -0.00220174 0)
(0.722791 -0.00165316 0)
(0.723761 -0.00115566 0)
(1.0055 0.0372437 0)
(1.03497 0.094405 0)
(1.07871 0.129569 0)
(1.11275 0.143913 0)
(1.13254 0.14498 0)
(1.14597 0.137445 0)
(1.14849 0.126067 0)
(1.1448 0.11369 0)
(1.1362 0.0998927 0)
(1.12458 0.084336 0)
(1.11131 0.0680505 0)
(1.09803 0.0524284 0)
(1.08585 0.0372876 0)
(1.07578 0.021967 0)
(1.06879 0.00595947 0)
(1.06565 -0.0113761 0)
(1.06711 -0.0306192 0)
(1.07384 -0.0525248 0)
(1.08675 -0.0779716 0)
(1.10711 -0.107891 0)
(1.13599 -0.143338 0)
(1.1753 -0.185317 0)
(1.2273 -0.23489 0)
(1.2947 -0.292867 0)
(1.38084 -0.359553 1.76202e-33)
(1.48968 -0.434466 -1.696e-33)
(1.62574 -0.515549 0)
(1.79393 -0.598199 0)
(1.99847 -0.674384 0)
(2.24267 -0.732304 0)
(2.52615 -0.753642 0)
(2.82601 -0.719915 0)
(3.10666 -0.616301 0)
(3.32955 -0.440787 0)
(3.47369 -0.224004 0)
(3.55732 -0.00214229 0)
(3.54512 0.205621 0)
(3.49648 0.369771 0)
(3.4092 0.490413 0)
(3.30161 0.573887 0)
(3.17902 0.632815 0)
(3.04271 0.670617 0)
(2.89064 0.688351 0)
(2.72208 0.684456 0)
(2.53847 0.659747 0)
(2.34308 0.616588 0)
(2.13964 0.55811 0)
(1.93362 0.487203 0)
(1.73074 0.406964 0)
(1.54241 0.32424 0)
(1.37595 0.245478 0)
(1.2363 0.175415 0)
(1.12477 0.116292 0)
(1.03979 0.068772 0)
(0.977819 0.0324451 0)
(0.934785 0.00599197 0)
(0.906534 -0.0121687 0)
(0.889651 -0.0235761 0)
(0.880803 -0.0299854 0)
(0.877186 -0.032118 0)
(0.87761 -0.0317198 0)
(0.879966 -0.0300631 0)
(0.883588 -0.0272095 0)
(0.88781 -0.0238888 0)
(0.892158 -0.0204608 0)
(0.896299 -0.0171778 0)
(0.900047 -0.0141867 0)
(0.903329 -0.011546 0)
(0.906127 -0.0092733 0)
(0.908464 -0.00735729 0)
(0.910383 -0.0057685 0)
(0.911927 -0.00447212 0)
(0.913171 -0.00341351 0)
(0.914091 -0.00260266 0)
(0.915041 -0.00180411 0)
(1.00295 0.0228357 0)
(1.01948 0.0637408 0)
(1.05019 0.0935872 0)
(1.08382 0.112071 0)
(1.11277 0.120761 0)
(1.13609 0.121666 0)
(1.15299 0.117522 0)
(1.16422 0.109578 0)
(1.1723 0.0977672 0)
(1.17583 0.0849539 0)
(1.17621 0.0726818 0)
(1.17497 0.0594535 0)
(1.17257 0.0449006 0)
(1.16999 0.0287542 0)
(1.16812 0.0104554 0)
(1.16769 -0.0101901 0)
(1.1694 -0.0334272 0)
(1.17389 -0.0600973 0)
(1.18192 -0.0914243 0)
(1.19497 -0.127986 0)
(1.21365 -0.17146 0)
(1.24049 -0.223989 0)
(1.27749 -0.286732 0)
(1.32773 -0.361197 0)
(1.39534 -0.448667 0)
(1.48582 -0.549553 0)
(1.60628 -0.662671 0)
(1.76553 -0.784138 0)
(1.97423 -0.905607 0)
(2.24513 -1.01328 0)
(2.57088 -1.07708 0)
(2.87791 -1.05146 0)
(3.12388 -0.917739 0)
(3.31327 -0.66034 0)
(3.37778 -0.345549 0)
(3.37786 -0.0416339 0)
(3.32814 0.22073 0)
(3.25289 0.425851 0)
(3.17179 0.568816 0)
(3.09809 0.667022 0)
(3.02472 0.736382 0)
(2.93854 0.781159 0)
(2.84754 0.805279 0)
(2.74518 0.813836 0)
(2.62005 0.803446 0)
(2.48001 0.772456 0)
(2.32926 0.727009 0)
(2.17172 0.666723 0)
(2.01109 0.590538 0)
(1.85215 0.502247 0)
(1.69922 0.408116 0)
(1.55863 0.315998 0)
(1.43502 0.231723 0)
(1.3314 0.159321 0)
(1.2481 0.100557 0)
(1.18357 0.0552057 0)
(1.13526 0.0219203 0)
(1.10031 -0.00112426 0)
(1.07578 -0.0159792 0)
(1.05937 -0.024529 0)
(1.04922 -0.0285685 0)
(1.04299 -0.0293033 0)
(1.03983 -0.0281879 0)
(1.03864 -0.0259993 0)
(1.03869 -0.0230783 0)
(1.03957 -0.0199296 0)
(1.04089 -0.0168286 0)
(1.04239 -0.0139512 0)
(1.04387 -0.0113894 0)
(1.04525 -0.0091679 0)
(1.04648 -0.00728089 0)
(1.04754 -0.00571264 0)
(1.04843 -0.00440581 0)
(1.04911 -0.00340417 0)
(1.04986 -0.00237276 0)
(1.0017 0.0152266 0)
(1.01149 0.044136 0)
(1.03162 0.0673056 0)
(1.05688 0.0834988 0)
(1.08269 0.0933944 0)
(1.10701 0.0979305 0)
(1.1287 0.0980492 0)
(1.1472 0.0944303 0)
(1.16222 0.0877604 0)
(1.17365 0.0788794 0)
(1.18229 0.0683974 0)
(1.18891 0.0561992 0)
(1.19381 0.0420548 0)
(1.19788 0.0259051 0)
(1.20062 0.00781684 0)
(1.20283 -0.0127621 0)
(1.20505 -0.0365851 0)
(1.20788 -0.0646054 0)
(1.21182 -0.0983286 0)
(1.2181 -0.139205 0)
(1.22776 -0.188528 0)
(1.24243 -0.248353 0)
(1.26412 -0.321103 0)
(1.29592 -0.409423 0)
(1.3424 -0.516115 0)
(1.41024 -0.643823 0)
(1.50913 -0.794172 0)
(1.65285 -0.96668 0)
(1.86235 -1.15691 0)
(2.1446 -1.35052 0)
(2.44063 -1.42685 0)
(2.62537 -1.3465 0)
(2.71899 -1.15595 0)
(2.61382 -0.779978 0)
(2.42591 -0.357019 0)
(2.26053 0.027967 0)
(2.19042 0.321507 0)
(2.19174 0.511388 0)
(2.21541 0.622038 0)
(2.27925 0.706883 0)
(2.36005 0.780788 0)
(2.42262 0.840654 0)
(2.44671 0.881524 0)
(2.44033 0.905125 0)
(2.40597 0.919963 0)
(2.34555 0.905492 0)
(2.2594 0.866144 0)
(2.16461 0.802995 0)
(2.05341 0.724006 0)
(1.93592 0.634207 0)
(1.81896 0.538788 0)
(1.70634 0.440376 0)
(1.60155 0.344605 0)
(1.50734 0.256992 0)
(1.4254 0.181445 0)
(1.35636 0.1197 0)
(1.29998 0.0717326 0)
(1.25527 0.0362735 0)
(1.22071 0.0113463 0)
(1.19453 -0.0051714 0)
(1.1752 -0.0152156 0)
(1.16137 -0.0205396 0)
(1.15173 -0.0226879 0)
(1.14522 -0.0227017 0)
(1.14096 -0.0213898 0)
(1.13834 -0.0193677 0)
(1.13686 -0.0169812 0)
(1.13617 -0.0145039 0)
(1.136 -0.0121266 0)
(1.13614 -0.00995924 0)
(1.13645 -0.00804664 0)
(1.13682 -0.00641044 0)
(1.1372 -0.00500995 0)
(1.13754 -0.00391846 0)
(1.13792 -0.00275419 0)
(1.00106 0.0105608 0)
(1.00736 0.0311687 0)
(1.021 0.0486811 0)
(1.03928 0.0618514 0)
(1.05953 0.070719 0)
(1.08012 0.0756849 0)
(1.1002 0.0772826 0)
(1.11906 0.075903 0)
(1.13606 0.0718601 0)
(1.15077 0.0656133 0)
(1.16325 0.0575086 0)
(1.17381 0.0475265 0)
(1.18242 0.0355713 0)
(1.18914 0.0215072 0)
(1.19429 0.00496389 0)
(1.19766 -0.0148793 0)
(1.19964 -0.0386715 0)
(1.20063 -0.0672599 0)
(1.20095 -0.101773 0)
(1.20096 -0.143775 0)
(1.20126 -0.195401 0)
(1.20289 -0.259273 0)
(1.20747 -0.33854 0)
(1.21771 -0.437148 0)
(1.23793 -0.559963 0)
(1.27517 -0.712771 0)
(1.34071 -0.901936 0)
(1.45201 -1.13435 0)
(1.63015 -1.41252 0)
(1.85434 -1.62087 0)
(1.93208 -1.5788 0)
(1.57548 -1.2256 0)
(1.0254 -0.684474 -4.27932e-18)
(0.511834 -0.163566 2.27002e-16)
(-0.0608245 -0.039112 0)
(-0.00687637 0.00707022 0)
(0.207591 0.208614 0)
(0.339557 0.353216 -2.78753e-16)
(0.49034 0.446383 0)
(0.806669 0.514684 0)
(1.12476 0.606877 0)
(1.39728 0.703555 0)
(1.6114 0.792124 0)
(1.76428 0.861454 0)
(1.86313 0.900691 0)
(1.91939 0.913478 0)
(1.93456 0.906837 0)
(1.92457 0.874408 0)
(1.88999 0.813724 0)
(1.83704 0.73209 0)
(1.77192 0.635312 0)
(1.70057 0.532544 0)
(1.62734 0.430044 0)
(1.55696 0.335022 0)
(1.49247 0.251666 0)
(1.43513 0.181025 0)
(1.38521 0.123435 0)
(1.34272 0.0785449 0)
(1.30736 0.0450552 0)
(1.27859 0.0211037 0)
(1.25568 0.00476352 0)
(1.23786 -0.0057365 0)
(1.22432 -0.0119316 0)
(1.21424 -0.0150715 0)
(1.2069 -0.0161083 0)
(1.20165 -0.0157876 0)
(1.19798 -0.0146544 0)
(1.19548 -0.0130907 0)
(1.19383 -0.0113504 0)
(1.19278 -0.00960008 0)
(1.19215 -0.00794319 0)
(1.1918 -0.00645428 0)
(1.19162 -0.00512762 0)
(1.19156 -0.00406448 0)
(1.19156 -0.00288921 0)
(1.00074 0.00747064 0)
(1.00511 0.0222599 0)
(1.01485 0.0353085 0)
(1.02839 0.0455581 0)
(1.04404 0.0528258 0)
(1.06073 0.0572764 0)
(1.07766 0.0591298 0)
(1.09425 0.0586188 0)
(1.10993 0.0559522 0)
(1.12432 0.0513822 0)
(1.13716 0.0450654 0)
(1.14835 0.0369554 0)
(1.1577 0.0268695 0)
(1.16501 0.0145719 0)
(1.17022 -0.0002481 0)
(1.17323 -0.0180649 0)
(1.17393 -0.0396705 0)
(1.17212 -0.0661183 0)
(1.16766 -0.0987744 0)
(1.16045 -0.139364 0)
(1.15053 -0.190107 0)
(1.13813 -0.253966 0)
(1.12397 -0.334866 0)
(1.10955 -0.438048 0)
(1.09782 -0.570533 3.462e-32)
(1.09437 -0.741683 -3.34344e-32)
(1.10867 -0.963811 0)
(1.1548 -1.25044 0)
(1.24798 -1.57225 0)
(1.2021 -1.66342 0)
(0.680987 -1.08711 0)
(-0.186322 -0.311369 0)
(0 0 0)
(0 0 0)
(0 0 0)
(0 0 0)
(0 0 0)
(-0.585154 0.0139184 -4.10723e-16)
(-0.431521 0.105159 0)
(-0.297639 0.133472 0)
(-0.00646467 0.242826 0)
(0.32472 0.37996 0)
(0.638562 0.52767 0)
(0.908326 0.664287 0)
(1.1229 0.768366 0)
(1.2835 0.834125 0)
(1.39651 0.859013 0)
(1.47633 0.849151 0)
(1.52692 0.815941 0)
(1.55423 0.755312 0)
(1.56032 0.675101 0)
(1.55005 0.583158 0)
(1.52778 0.486541 0)
(1.49774 0.391103 0)
(1.46323 0.303079 0)
(1.4288 0.226773 0)
(1.39543 0.164085 0)
(1.36461 0.114063 0)
(1.33722 0.0755377 0)
(1.31353 0.046602 0)
(1.29351 0.0255488 0)
(1.27698 0.010814 0)
(1.26361 0.000949442 0)
(1.25301 -0.00525754 0)
(1.2448 -0.00877596 0)
(1.23853 -0.0104031 0)
(1.23381 -0.0107599 0)
(1.23031 -0.0103165 0)
(1.22774 -0.00941011 0)
(1.22589 -0.00827385 0)
(1.22456 -0.00705947 0)
(1.22364 -0.00588092 0)
(1.22298 -0.00476594 0)
(1.22256 -0.00384255 0)
(1.22217 -0.00277365 0)
(1.00055 0.00527165 0)
(1.00379 0.0157822 0)
(1.01112 0.0252761 0)
(1.02156 0.0329713 0)
(1.03397 0.0386005 0)
(1.04753 0.0421843 0)
(1.06164 0.0438343 0)
(1.07579 0.0436757 0)
(1.08944 0.0418225 0)
(1.10222 0.03839 0)
(1.11381 0.0334437 0)
(1.12394 0.0269365 0)
(1.13233 0.0187474 0)
(1.13869 0.00862363 0)
(1.14266 -0.00375393 0)
(1.14391 -0.0189198 0)
(1.14203 -0.0376278 0)
(1.13651 -0.0608488 0)
(1.12675 -0.0898542 0)
(1.1121 -0.126348 0)
(1.09179 -0.172637 0)
(1.06508 -0.231876 0)
(1.03125 -0.308412 0)
(0.989886 -0.408298 0)
(0.941323 -0.540123 0)
(0.887385 -0.716042 0)
(0.830376 -0.952313 0)
(0.785673 -1.25083 0)
(0.661535 -1.49228 0)
(0.165856 -1.00811 3.62727e-18)
(-0.371809 -0.301354 0)
(0 0 0)
(0 0 0)
(0 0 0)
(0 0 0)
(0 0 0)
(0 0 0)
(0 0 0)
(0 0 0)
(-0.672084 -0.0337936 0)
(-0.581563 -0.0516205 0)
(-0.367927 0.0606916 0)
(-0.110185 0.227278 0)
(0.143065 0.39327 0)
(0.378062 0.537954 0)
(0.589566 0.648775 0)
(0.769639 0.716053 0)
(0.920939 0.743652 0)
(1.0449 0.735458 0)
(1.14524 0.699114 0)
(1.22267 0.640999 0)
(1.27915 0.567485 0)
(1.31698 0.485251 0)
(1.33895 0.401015 0)
(1.34835 0.320864 0)
(1.34833 0.248815 0)
(1.3421 0.187319 0)
(1.33223 0.136662 0)
(1.32054 0.0960991 0)
(1.30844 0.0647889 0)
(1.29685 0.0412857 0)
(1.28629 0.0241552 0)
(1.27699 0.0120083 0)
(1.26902 0.00372157 0)
(1.26234 -0.00162888 0)
(1.25686 -0.00480545 0)
(1.25244 -0.006433 0)
(1.2489 -0.00701244 0)
(1.24611 -0.00691569 0)
(1.24394 -0.00640965 0)
(1.24227 -0.00568039 0)
(1.241 -0.00487008 0)
(1.24002 -0.00403396 0)
(1.23935 -0.00331089 0)
(1.23861 -0.00242874 0)
(1.00043 0.00359828 0)
(1.00298 0.0107998 0)
(1.00879 0.0174036 0)
(1.01721 0.0228744 0)
(1.02742 0.0269668 0)
(1.03879 0.0296354 0)
(1.05078 0.0309154 0)
(1.06293 0.0308738 0)
(1.07479 0.0295696 0)
(1.08592 0.0270538 0)
(1.09599 0.0233443 0)
(1.10466 0.0183932 0)
(1.11156 0.0121025 0)
(1.11633 0.00427514 0)
(1.11848 -0.0054143 0)
(1.11749 -0.0173981 0)
(1.11271 -0.0323008 0)
(1.10335 -0.0509578 0)
(1.08842 -0.0744914 0)
(1.06668 -0.10443 0)
(1.03658 -0.142877 0)
(0.996215 -0.192769 0)
(0.94326 -0.258271 0)
(0.874963 -0.345438 0)
(0.788109 -0.4631 5.34022e-33)
(0.679028 -0.624185 -5.28354e-33)
(0.54618 -0.843193 0)
(0.375176 -1.08632 0)
(0.00859963 -1.04287 0)
(-0.512797 -0.308886 0)
(0 0 0)
(0 0 0)
(0 0 0)
(0 0 0)
(0 0 0)
(0 0 0)
(0 0 0)
(0 0 0)
(0 0 0)
(0 0 0)
(-0.718419 -0.134121 0)
(-0.688152 -0.122687 0)
(-0.55056 0.0124677 0)
(-0.383351 0.175279 0)
(-0.197857 0.323659 0)
(-0.0055528 0.444091 0)
(0.184468 0.527879 0)
(0.367307 0.575205 0)
(0.539545 0.589304 0)
(0.695962 0.575331 0)
(0.833418 0.539417 0)
(0.950185 0.487621 0)
(1.04555 0.425736 0)
(1.12038 0.359536 0)
(1.1766 0.294303 0)
(1.21676 0.23393 0)
(1.24392 0.180844 0)
(1.26115 0.135986 0)
(1.27102 0.0993052 0)
(1.27568 0.0701691 0)
(1.27679 0.0475983 0)
(1.27566 0.0306373 0)
(1.27315 0.0181913 0)
(1.27005 0.00932299 0)
(1.26669 0.00333363 0)
(1.26336 -0.000528882 0)
(1.26026 -0.00281053 0)
(1.25747 -0.00400342 0)
(1.25504 -0.00446191 0)
(1.25299 -0.00443817 0)
(1.25129 -0.00411703 0)
(1.24992 -0.00364259 0)
(1.24878 -0.00308561 0)
(1.24798 -0.00257361 0)
(1.24702 -0.00191564 0)
(1.00036 0.00224562 0)
(1.00249 0.00674747 0)
(1.00737 0.0109177 0)
(1.01452 0.0144229 0)
(1.02332 0.0170841 0)
(1.03323 0.0188454 0)
(1.04379 0.0197083 0)
(1.05456 0.0197033 0)
(1.06509 0.0188562 0)
(1.07496 0.0171874 0)
(1.08379 0.0146943 0)
(1.09119 0.0113329 0)
(1.09676 0.00701786 0)
(1.10002 0.00168568 0)
(1.1005 -0.00499258 0)
(1.09747 -0.0132876 0)
(1.09014 -0.0236605 0)
(1.07748 -0.0367314 0)
(1.05818 -0.0533352 0)
(1.03053 -0.0746221 0)
(0.992291 -0.1022 0)
(0.940541 -0.138347 0)
(0.871404 -0.186357 0)
(0.779697 -0.251093 0)
(0.658503 -0.339917 0)
(0.498798 -0.463513 0)
(0.294994 -0.629843 0)
(-0.0130105 -0.781485 0)
(-0.443821 -0.563013 0)
(0 0 0)
(0 0 0)
(0 0 0)
(0 0 0)
(0 0 0)
(0 0 0)
(0 0 0)
(0 0 0)
(0 0 0)
(0 0 0)
(0 0 0)
(-0.746189 -0.115373 0)
(-0.767698 -0.157594 0)
(-0.762273 -0.0768974 0)
(-0.697887 0.0461941 0)
(-0.583457 0.166658 0)
(-0.433068 0.267427 0)
(-0.25939 0.340774 0)
(-0.0719933 0.386426 0)
(0.119541 0.406553 0)
(0.306764 0.405015 0)
(0.483002 0.386049 0)
(0.64288 0.354263 0)
(0.783145 0.313827 0)
(0.901991 0.268972 0)
(0.999292 0.223758 0)
(1.0762 0.18099 0)
(1.13512 0.142491 0)
(1.17895 0.109239 0)
(1.21055 0.0814866 0)
(1.23251 0.0590089 0)
(1.24709 0.0412877 0)
(1.25618 0.0276998 0)
(1.26131 0.0175618 0)
(1.26368 0.0101793 0)
(1.26417 0.00502601 0)
(1.26351 0.00158047 0)
(1.2622 -0.000567865 0)
(1.26053 -0.00182279 0)
(1.25875 -0.00246052 0)
(1.25705 -0.00267209 0)
(1.25551 -0.00260552 0)
(1.25418 -0.00237739 0)
(1.25301 -0.00205527 0)
(1.25215 -0.00173779 0)
(1.25108 -0.0013098 0)
(1.00032 0.00107901 0)
(1.00222 0.0032442 0)
(1.00659 0.00526254 0)
(1.01304 0.00697499 0)
(1.02104 0.00828539 0)
(1.03013 0.00915924 0)
(1.03987 0.00959217 0)
(1.04983 0.0095949 0)
(1.05959 0.00917612 0)
(1.06868 0.00834268 0)
(1.07674 0.00708897 0)
(1.08334 0.00538374 0)
(1.08803 0.00315891 0)
(1.09024 0.000464862 0)
(1.08957 -0.00293513 0)
(1.08517 -0.00717198 0)
(1.07612 -0.0124962 0)
(1.06125 -0.0192336 0)
(1.03905 -0.0278257 0)
(1.00748 -0.0388899 0)
(0.963847 -0.0532963 0)
(0.904515 -0.0722891 0)
(0.824513 -0.0976836 0)
(0.716935 -0.132188 0)
(0.572131 -0.179907 2.60412e-32)
(0.377447 -0.246684 -2.70348e-32)
(0.114962 -0.3354 0)
(-0.292268 -0.405868 0)
(-0.63275 -0.263703 3.75807e-16)
(0 0 0)
(0 0 0)
(0 0 0)
(0 0 0)
(0 0 0)
(0 0 0)
(0 0 0)
(0 0 0)
(0 0 0)
(0 0 0)
(0 0 0)
(-0.6827 -0.047527 -3.52754e-16)
(-0.776192 -0.101067 0)
(-0.841619 -0.0620144 0)
(-0.854227 -0.00164371 0)
(-0.800787 0.0640264 0)
(-0.688098 0.122947 0)
(-0.534441 0.166288 0)
(-0.351097 0.194463 0)
(-0.15247 0.208598 0)
(0.0503073 0.210801 0)
(0.248453 0.203153 0)
(0.434585 0.188276 0)
(0.603008 0.167844 0)
(0.748474 0.144516 0)
(0.872371 0.121055 0)
(0.97358 0.0988243 0)
(1.05403 0.0785382 0)
(1.1164 0.0607959 0)
(1.16348 0.0458344 0)
(1.19799 0.0335986 0)
(1.2225 0.0238605 0)
(1.23925 0.0163169 0)
(1.25014 0.010619 0)
(1.25673 0.00642353 0)
(1.26024 0.00344962 0)
(1.26167 0.00141998 0)
(1.26175 0.000199798 0)
(1.2611 -0.000583493 0)
(1.25994 -0.0010243 0)
(1.2586 -0.00121675 0)
(1.25724 -0.00124181 0)
(1.25599 -0.00116244 0)
(1.25484 -0.00102045 0)
(1.25398 -0.000871018 0)
(1.25286 -0.000662161 0)
(1.00031 3.42885e-06 0)
(1.0021 2.19741e-06 0)
(1.00632 2.5151e-06 0)
(1.01255 2.56471e-06 0)
(1.0203 2.54636e-06 0)
(1.02913 2.78725e-06 0)
(1.0386 3.27368e-06 0)
(1.04829 3.8623e-06 0)
(1.0578 4.60032e-06 0)
(1.06664 5.42373e-06 0)
(1.07445 6.40021e-06 0)
(1.08078 7.51521e-06 0)
(1.08521 8.69631e-06 0)
(1.08706 9.96885e-06 0)
(1.08588 1.04199e-05 0)
(1.081 1.09602e-05 0)
(1.07136 1.15857e-05 0)
(1.05573 1.19303e-05 0)
(1.03251 1.18854e-05 0)
(0.999575 1.14173e-05 0)
(0.954058 1.06114e-05 0)
(0.892071 9.42235e-06 0)
(0.808252 8.04659e-06 0)
(0.695095 6.16525e-06 0)
(0.542051 4.12306e-06 0)
(0.335293 1.54846e-06 0)
(0.0496152 -2.78088e-06 0)
(-0.376577 4.4523e-06 0)
(-0.640204 -3.35396e-05 0)
(0 0 0)
(0 0 0)
(0 0 0)
(0 0 0)
(0 0 0)
(0 0 0)
(0 0 0)
(0 0 0)
(0 0 0)
(0 0 0)
(0 0 0)
(-0.703248 1.87019e-05 0)
(-0.734353 0.000141426 0)
(-0.862282 0.000159929 0)
(-0.89618 0.000116971 0)
(-0.873701 7.24303e-05 0)
(-0.774312 1.65793e-05 0)
(-0.630442 -3.19828e-05 0)
(-0.449722 -6.71075e-05 0)
(-0.249547 -8.71147e-05 0)
(-0.0419194 -9.46529e-05 0)
(0.163644 -9.24809e-05 0)
(0.359009 -8.24818e-05 0)
(0.544645 -6.97319e-05 0)
(0.689675 -4.98731e-05 0)
(0.825402 -3.06431e-05 0)
(0.935867 -1.96947e-05 0)
(1.02407 -1.06034e-05 0)
(1.09317 -3.26416e-06 0)
(1.14588 1.09071e-06 0)
(1.18499 3.14354e-06 0)
(1.21313 3.69595e-06 0)
(1.2327 3.32563e-06 0)
(1.24572 2.44669e-06 0)
(1.25389 1.41368e-06 0)
(1.25853 4.58716e-07 0)
(1.26078 -2.59308e-07 0)
(1.2613 -7.23076e-07 0)
(1.26102 -1.09443e-06 0)
(1.26015 -1.18484e-06 0)
(1.25897 -1.15644e-06 0)
(1.25769 -1.1029e-06 0)
(1.25648 -1.01736e-06 0)
(1.25534 -8.95712e-07 0)
(1.25449 -7.99834e-07 0)
(1.25336 -5.88818e-07 0)
(1.00032 -0.00107231 0)
(1.00222 -0.00323949 0)
(1.00659 -0.00525768 0)
(1.01304 -0.00696985 0)
(1.02104 -0.0082803 0)
(1.03013 -0.00915365 0)
(1.03987 -0.00958566 0)
(1.04983 -0.0095872 0)
(1.05959 -0.009167 0)
(1.06868 -0.00833187 0)
(1.07674 -0.00707628 0)
(1.08334 -0.00536879 0)
(1.08803 -0.0031418 0)
(1.09024 -0.000445505 0)
(1.08957 0.00295603 0)
(1.08517 0.00719419 0)
(1.07612 0.0125195 0)
(1.06125 0.0192574 0)
(1.03905 0.0278494 0)
(1.00748 0.0389127 0)
(0.963849 0.0533174 0)
(0.904518 0.0723082 0)
(0.824515 0.0977 0)
(0.716937 0.1322 0)
(0.572131 0.179916 0)
(0.377445 0.246687 0)
(0.114963 0.335398 0)
(-0.29229 0.405889 0)
(-0.632741 0.263541 -3.75761e-16)
(0 0 0)
(0 0 0)
(0 0 0)
(0 0 0)
(0 0 0)
(0 0 0)
(0 0 0)
(0 0 0)
(0 0 0)
(0 0 0)
(0 0 0)
(-0.682729 0.0476582 3.52846e-16)
(-0.776258 0.101397 0)
(-0.841695 0.0623396 0)
(-0.854308 0.00188524 0)
(-0.800817 -0.0638983 0)
(-0.688085 -0.122933 0)
(-0.534388 -0.166366 0)
(-0.351016 -0.194601 0)
(-0.152375 -0.208766 0)
(0.0504046 -0.210979 0)
(0.248544 -0.203323 0)
(0.434663 -0.188426 0)
(0.603071 -0.167964 0)
(0.748524 -0.144603 0)
(0.872409 -0.121112 0)
(0.973608 -0.0988583 0)
(1.05404 -0.0785537 0)
(1.11641 -0.0607986 0)
(1.16348 -0.0458301 0)
(1.198 -0.033591 0)
(1.2225 -0.0238524 0)
(1.23925 -0.0163098 0)
(1.25014 -0.010614 0)
(1.25673 -0.00642052 0)
(1.26024 -0.00344865 0)
(1.26167 -0.00142048 0)
(1.26175 -0.000201328 0)
(1.2611 0.000581574 0)
(1.25995 0.00102212 0)
(1.2586 0.00121455 0)
(1.25724 0.00123971 0)
(1.25599 0.0011605 0)
(1.25484 0.00101873 0)
(1.25398 0.000869476 0)
(1.25286 0.000661022 0)
(1.00036 -0.0022384 0)
(1.00249 -0.00674346 0)
(1.00737 -0.0109131 0)
(1.01452 -0.0144178 0)
(1.02332 -0.017079 0)
(1.03323 -0.0188398 0)
(1.04379 -0.0197019 0)
(1.05456 -0.0196957 0)
(1.06509 -0.0188473 0)
(1.07496 -0.0171768 0)
(1.08379 -0.0146818 0)
(1.09119 -0.0113183 0)
(1.09676 -0.00700114 0)
(1.10002 -0.00166677 0)
(1.1005 0.00501326 0)
(1.09747 0.0133097 0)
(1.09014 0.0236835 0)
(1.07748 0.036755 0)
(1.05819 0.0533586 0)
(1.03053 0.0746447 0)
(0.992297 0.102221 0)
(0.940547 0.138366 0)
(0.87141 0.186374 0)
(0.779703 0.251108 0)
(0.658504 0.339928 0)
(0.498807 0.463521 0)
(0.294992 0.629837 0)
(-0.0130507 0.781444 0)
(-0.443631 0.563026 0)
(0 0 0)
(0 0 0)
(0 0 0)
(0 0 0)
(0 0 0)
(0 0 0)
(0 0 0)
(0 0 0)
(0 0 0)
(0 0 0)
(0 0 0)
(-0.746254 0.115511 0)
(-0.767862 0.157894 0)
(-0.762439 0.0772484 0)
(-0.698003 -0.045985 0)
(-0.583499 -0.166599 0)
(-0.433026 -0.267482 0)
(-0.259284 -0.340901 0)
(-0.0718489 -0.386591 0)
(0.119702 -0.406731 0)
(0.306923 -0.40519 0)
(0.483147 -0.386207 0)
(0.643003 -0.354395 0)
(0.783244 -0.313928 0)
(0.902066 -0.26904 0)
(0.999346 -0.223798 0)
(1.07624 -0.181009 0)
(1.13514 -0.142495 0)
(1.17897 -0.109234 0)
(1.21056 -0.0814776 0)
(1.23252 -0.0589988 0)
(1.24709 -0.0412784 0)
(1.25619 -0.0276923 0)
(1.26132 -0.0175564 0)
(1.26368 -0.0101763 0)
(1.26418 -0.00502484 0)
(1.26352 -0.00158071 0)
(1.2622 0.000566755 0)
(1.26053 0.00182119 0)
(1.25875 0.0024587 0)
(1.25705 0.00267021 0)
(1.25551 0.0026037 0)
(1.25418 0.0023757 0)
(1.25301 0.00205373 0)
(1.25215 0.0017364 0)
(1.25108 0.00130877 0)
(1.00043 -0.00359188 0)
(1.00298 -0.0107954 0)
(1.00879 -0.017399 0)
(1.01721 -0.0228694 0)
(1.02742 -0.0269618 0)
(1.03879 -0.02963 0)
(1.05078 -0.0309091 0)
(1.06294 -0.0308664 0)
(1.07479 -0.0295609 0)
(1.08592 -0.0270435 0)
(1.09599 -0.0233322 0)
(1.10466 -0.0183792 0)
(1.11156 -0.0120863 0)
(1.11633 -0.00425689 0)
(1.11849 0.00543439 0)
(1.11749 0.0174197 0)
(1.11271 0.0323233 0)
(1.10336 0.0509808 0)
(1.08843 0.0745142 0)
(1.06669 0.104452 0)
(1.03659 0.142899 0)
(0.996224 0.192789 0)
(0.94327 0.258289 0)
(0.874972 0.345454 0)
(0.788116 0.463115 0)
(0.679037 0.624192 0)
(0.546183 0.843207 0)
(0.375168 1.08627 0)
(0.0085683 1.04273 0)
(-0.512585 0.308614 0)
(0 0 0)
(0 0 0)
(0 0 0)
(0 0 0)
(0 0 0)
(0 0 0)
(0 0 0)
(0 0 0)
(0 0 0)
(0 0 0)
(-0.718341 0.134641 0)
(-0.68826 0.123021 0)
(-0.550715 -0.0121419 0)
(-0.383389 -0.175148 0)
(-0.197809 -0.323696 0)
(-0.00542339 -0.444227 0)
(0.184649 -0.52806 0)
(0.367508 -0.575396 0)
(0.539743 -0.589487 0)
(0.696141 -0.575494 0)
(0.833572 -0.539553 0)
(0.950309 -0.487726 0)
(1.04564 -0.425808 0)
(1.12045 -0.359579 0)
(1.17665 -0.294322 0)
(1.21679 -0.233933 0)
(1.24394 -0.180837 0)
(1.26115 -0.135975 0)
(1.27103 -0.0992926 0)
(1.27568 -0.0701576 0)
(1.27679 -0.0475888 0)
(1.27567 -0.0306301 0)
(1.27316 -0.0181864 0)
(1.27006 -0.00932006 0)
(1.2667 -0.00333225 0)
(1.26337 0.000529104 0)
(1.26027 0.00280998 0)
(1.25747 0.00400237 0)
(1.25504 0.00446061 0)
(1.253 0.00443677 0)
(1.25129 0.00411563 0)
(1.24992 0.00364126 0)
(1.24878 0.00308436 0)
(1.24798 0.00257245 0)
(1.24702 0.00191476 0)
(1.00055 -0.00526582 0)
(1.00379 -0.0157779 0)
(1.01112 -0.0252715 0)
(1.02156 -0.0329664 0)
(1.03397 -0.0385957 0)
(1.04753 -0.042179 0)
(1.06164 -0.0438282 0)
(1.07579 -0.0436686 0)
(1.08945 -0.0418141 0)
(1.10222 -0.0383801 0)
(1.11381 -0.0334321 0)
(1.12394 -0.0269232 0)
(1.13233 -0.0187321 0)
(1.13869 -0.0086063 0)
(1.14267 0.00377319 0)
(1.14392 0.0189406 0)
(1.14204 0.0376496 0)
(1.13651 0.0608709 0)
(1.12676 0.0898761 0)
(1.11211 0.126369 0)
(1.09181 0.172658 0)
(1.06509 0.231896 0)
(1.03126 0.30843 0)
(0.989902 0.408314 0)
(0.941333 0.540137 0)
(0.887413 0.71606 0)
(0.830342 0.952306 0)
(0.785803 1.25077 0)
(0.661282 1.49258 0)
(0.165757 1.00821 0)
(-0.37116 0.300632 8.0381e-17)
(0 0 0)
(0 0 0)
(0 0 0)
(0 0 0)
(0 0 0)
(0 0 0)
(0 0 0)
(0 0 0)
(-0.671567 0.0337593 0)
(-0.581665 0.0520138 0)
(-0.367891 -0.0602873 0)
(-0.110199 -0.227007 0)
(0.143234 -0.393226 0)
(0.378285 -0.538065 0)
(0.58982 -0.648963 0)
(0.769885 -0.716256 0)
(0.921157 -0.743846 0)
(1.04509 -0.73562 0)
(1.14539 -0.699249 0)
(1.22279 -0.641104 0)
(1.27924 -0.567558 0)
(1.31704 -0.485293 0)
(1.33899 -0.401033 0)
(1.34837 -0.320865 0)
(1.34833 -0.248806 0)
(1.3421 -0.187305 0)
(1.33223 -0.136648 0)
(1.32054 -0.0960866 0)
(1.30844 -0.0647785 0)
(1.29685 -0.0412777 0)
(1.2863 -0.0241493 0)
(1.27699 -0.0120042 0)
(1.26902 -0.00371887 0)
(1.26235 0.00163046 0)
(1.25687 0.00480616 0)
(1.25244 0.00643301 0)
(1.2489 0.00701199 0)
(1.24611 0.00691495 0)
(1.24395 0.00640877 0)
(1.24227 0.00567945 0)
(1.24101 0.00486912 0)
(1.24002 0.00403302 0)
(1.23936 0.00330999 0)
(1.23861 0.00242805 0)
(1.00074 -0.00746537 0)
(1.00511 -0.0222559 0)
(1.01485 -0.035304 0)
(1.02839 -0.0455536 0)
(1.04404 -0.0528212 0)
(1.06073 -0.0572713 0)
(1.07766 -0.059124 0)
(1.09425 -0.0586119 0)
(1.10993 -0.0559441 0)
(1.12432 -0.0513727 0)
(1.13717 -0.0450544 0)
(1.14835 -0.0369426 0)
(1.1577 -0.0268552 0)
(1.16502 -0.0145558 0)
(1.17023 0.000266071 0)
(1.17324 0.0180845 0)
(1.17394 0.0396908 0)
(1.17213 0.066139 0)
(1.16767 0.098795 0)
(1.16047 0.139384 0)
(1.15054 0.190127 0)
(1.13815 0.253985 0)
(1.12399 0.334884 0)
(1.10957 0.438065 0)
(1.09784 0.570546 0)
(1.09439 0.741698 0)
(1.10872 0.96379 0)
(1.15474 1.25045 0)
(1.24823 1.57209 0)
(1.20228 1.66331 0)
(0.681936 1.0877 2.39445e-17)
(-0.186151 0.311141 0)
(0 0 0)
(0 0 0)
(0 0 0)
(0 0 0)
(0 0 0)
(-0.584765 -0.0119609 -4.0899e-16)
(-0.43278 -0.104856 0)
(-0.297724 -0.133494 0)
(-0.00665603 -0.242524 0)
(0.3248 -0.379673 0)
(0.638856 -0.527474 0)
(0.908722 -0.664328 0)
(1.12329 -0.768513 0)
(1.28385 -0.834287 0)
(1.39678 -0.859168 0)
(1.47655 -0.849273 0)
(1.5271 -0.816059 0)
(1.55436 -0.755403 0)
(1.56041 -0.675169 0)
(1.5501 -0.583202 0)
(1.52781 -0.486558 0)
(1.49775 -0.391101 0)
(1.46323 -0.303067 0)
(1.4288 -0.22676 0)
(1.39542 -0.16407 0)
(1.36461 -0.11405 0)
(1.33721 -0.0755272 0)
(1.31353 -0.0465942 0)
(1.29351 -0.025543 0)
(1.27698 -0.0108098 0)
(1.26361 -0.000946307 0)
(1.25302 0.00525983 0)