/*--------------------------------*- C++ -*----------------------------------*\
| =========                 |                                                 |
| \\      /  F ield         | OpenFOAM: The Open Source CFD Toolbox           |
|  \\    /   O peration     | Version:  2206                                  |
|   \\  /    A nd           | Website:  www.openfoam.com                      |
|    \\/     M anipulation  |                                                 |
\*---------------------------------------------------------------------------*/
FoamFile
{
    version     2.0;
    format      ascii;
    arch        "LSB;label=32;scalar=64";
    class       surfaceVectorField;
    location    "0.9";
    object      Uf;
}
// * * * * * * * * * * * * * * * * * * * * * * * * * * * * * * * * * * * * * //

dimensions      [0 1 -1 0 0 0 0];

internalField   nonuniform List<vector> 
3650
(
(0.85987 0.0532273 0)
(0.903204 0.14013 0)
(0.70171 0.0845578 0)
(0.900531 0.15816 0)
(0.567992 0.0659966 0)
(0.843736 0.133718 0)
(0.464911 0.0365246 0)
(0.753218 0.103082 0)
(0.389363 0.0187918 0)
(0.673622 0.075548 0)
(0.336077 0.010065 0)
(0.608919 0.0532864 0)
(0.298873 0.00526869 0)
(0.557332 0.0372036 0)
(0.273056 0.00256102 0)
(0.516008 0.0258173 0)
(0.255077 0.00105659 0)
(0.483728 0.0179788 0)
(0.242574 0.000177647 0)
(0.458962 0.0125038 0)
(0.234161 -0.000415605 0)
(0.440338 0.0084122 0)
(0.229033 -0.000902761 0)
(0.426856 0.00512805 0)
(0.226781 -0.00138278 0)
(0.417823 0.00225234 0)
(0.227293 -0.0019624 0)
(0.412999 -0.000512191 0)
(0.230523 -0.00269004 0)
(0.412243 -0.00323024 0)
(0.236809 -0.00356568 0)
(0.415592 -0.00628639 0)
(0.246645 -0.00463918 0)
(0.4236 -0.00983585 0)
(0.260678 -0.00598014 0)
(0.436888 -0.0140329 0)
(0.279759 -0.00766833 0)
(0.456267 -0.0190808 0)
(0.304975 -0.00978403 0)
(0.482838 -0.0252165 0)
(0.337667 -0.0124096 0)
(0.517994 -0.0326922 0)
(0.379424 -0.0156192 0)
(0.563409 -0.0417571 0)
(0.432048 -0.0194587 0)
(0.621015 -0.0526235 0)
(0.497457 -0.0239109 0)
(0.692932 -0.0654105 0)
(0.577503 -0.0288426 0)
(0.781336 -0.0800445 0)
(0.67363 -0.0339315 0)
(0.8882 -0.0961276 0)
(0.786386 -0.0385775 0)
(1.01491 -0.112756 0)
(0.914716 -0.0418252 0)
(1.16165 -0.12833 0)
(1.0551 -0.042687 0)
(1.32669 -0.140389 0)
(1.20117 -0.0395036 0)
(1.50539 -0.146065 0)
(1.34251 -0.029435 0)
(1.68954 -0.141339 0)
(1.46429 -0.0124987 0)
(1.86787 -0.121778 0)
(1.55077 0.00877789 0)
(2.0238 -0.0864793 0)
(1.588 0.0309347 0)
(2.13984 -0.0372349 0)
(1.56953 0.0533201 0)
(2.199 0.0184738 0)
(1.49597 0.0716746 0)
(2.19763 0.0735542 0)
(1.37606 0.081569 0)
(2.13646 0.119909 0)
(1.2214 0.0832892 0)
(2.02268 0.154663 0)
(1.04784 0.0763122 0)
(1.86833 0.173564 0)
(0.871158 0.0627502 0)
(1.68749 0.176677 0)
(0.70504 0.0446142 0)
(1.49259 0.166118 0)
(0.559298 0.0261122 0)
(1.2961 0.145741 0)
(0.437433 0.012928 0)
(1.10495 0.121866 0)
(0.337736 0.00597879 0)
(0.924429 0.099696 0)
(0.257551 0.0027024 0)
(0.761764 0.0801855 0)
(0.194409 0.00117574 0)
(0.620907 0.0631421 0)
(0.146147 0.000375547 0)
(0.504037 0.0482622 0)
(0.110704 -0.00017701 0)
(0.410015 0.0354434 0)
(0.0860838 -0.000742847 0)
(0.337432 0.0246205 0)
(0.0705419 -0.00135864 0)
(0.283997 0.0155418 0)
(0.0625743 -0.00190649 0)
(0.247066 0.00796794 0)
(0.0606472 -0.00217806 0)
(0.223375 0.00192682 0)
(0.0630349 -0.00226855 0)
(0.210491 -0.00238733 0)
(0.068655 -0.00236288 0)
(0.206325 -0.00562039 0)
(0.0766631 -0.00235611 0)
(0.208523 -0.00800771 0)
(0.0861912 -0.00228434 0)
(0.215026 -0.00952831 0)
(0.0963416 -0.00218662 0)
(0.224469 -0.01015 0)
(0.106538 -0.00202678 0)
(0.235306 -0.0101967 0)
(0.116314 -0.0018394 0)
(0.246709 -0.00977545 0)
(0.125336 -0.0016534 0)
(0.257945 -0.00902221 0)
(0.13339 -0.00153247 0)
(0.268451 -0.00805385 0)
(0.140424 -0.00149493 0)
(0.277937 -0.00703462 0)
(0.146461 -0.00142117 0)
(0.286279 -0.00603631 0)
(0.151522 -0.00122273 0)
(0.293452 -0.00506067 0)
(0.155678 -0.000982862 0)
(0.299526 -0.00415595 0)
(0.159044 -0.00077689 0)
(0.30442 -0.00336696 0)
(0.161739 -0.000609868 0)
(0.308483 -0.00269391 0)
(0.16388 -0.000477064 0)
(0.311777 -0.00214157 0)
(0.165562 -0.000368235 0)
(0.314378 -0.00168228 0)
(0.166869 -0.000280425 0)
(0.316424 -0.00130658 0)
(0.167874 -0.000211473 0)
(0.318017 -0.00100454 0)
(0.168638 -0.000157659 0)
(0.319243 -0.000764545 0)
(0.169214 -0.000114311 0)
(0.320178 -0.000575373 0)
(0.169639 -9.50489e-05 0)
(0.320877 -0.000425216 0)
(0.321503 -0.000329043 0)
(1.05184 0.154625 0)
(1.01331 0.0882878 0)
(1.04786 0.18271 0)
(1.05572 0.162146 0)
(1.01143 0.167699 0)
(1.06808 0.170141 0)
(0.956804 0.1427 0)
(1.05037 0.157711 0)
(0.893079 0.112434 0)
(1.01568 0.139273 0)
(0.829725 0.0835117 0)
(0.97382 0.11664 0)
(0.77332 0.0605715 0)
(0.931228 0.0936092 0)
(0.725882 0.0436225 0)
(0.889739 0.0732553 0)
(0.687169 0.0312634 0)
(0.851866 0.0566922 0)
(0.65641 0.0219966 0)
(0.819247 0.0432627 0)
(0.632786 0.0147095 0)
(0.792242 0.0320361 0)
(0.615435 0.00860529 0)
(0.770767 0.0224785 0)
(0.603787 0.00307752 0)
(0.754542 0.0139007 0)
(0.597605 -0.00221608 0)
(0.743502 0.00566917 0)
(0.596919 -0.00769664 0)
(0.737852 -0.00254399 0)
(0.601934 -0.013843 0)
(0.737706 -0.0113016 0)
(0.613283 -0.0209391 0)
(0.743674 -0.0211849 0)
(0.631748 -0.0292923 0)
(0.756427 -0.032497 0)
(0.658417 -0.0392728 0)
(0.776859 -0.0457502 0)
(0.694691 -0.0512815 0)
(0.806184 -0.0614909 0)
(0.742295 -0.0657222 0)
(0.845917 -0.0802963 0)
(0.803254 -0.0829535 0)
(0.897896 -0.102716 0)
(0.879843 -0.103219 0)
(0.964269 -0.129213 0)
(0.974488 -0.126529 0)
(1.04744 -0.160055 0)
(1.08957 -0.152491 0)
(1.14999 -0.195128 0)
(1.22713 -0.180072 0)
(1.27445 -0.233686 0)
(1.38837 -0.207329 0)
(1.42304 -0.273997 0)
(1.57297 -0.231144 0)
(1.59711 -0.312934 0)
(1.77818 -0.24718 0)
(1.79629 -0.345592 0)
(1.99772 -0.250201 0)
(2.01749 -0.365607 0)
(2.22151 -0.234511 0)
(2.25378 -0.365127 0)
(2.43523 -0.195409 0)
(2.49363 -0.335506 0)
(2.62032 -0.1318 0)
(2.71961 -0.271567 0)
(2.75798 -0.048534 0)
(2.90788 -0.174891 0)
(2.83156 0.0412911 0)
(3.03884 -0.0551062 0)
(2.8376 0.12537 0)
(3.09962 0.0675131 0)
(2.7796 0.197784 0)
(3.09426 0.177912 0)
(2.66539 0.25181 0)
(3.02831 0.268868 0)
(2.50405 0.282839 0)
(2.91127 0.334902 0)
(2.30622 0.292558 0)
(2.75578 0.374514 0)
(2.08109 0.284569 0)
(2.57078 0.391251 0)
(1.83801 0.262595 0)
(2.36068 0.388818 0)
(1.58874 0.231343 0)
(2.13123 0.371137 0)
(1.34684 0.195296 0)
(1.89203 0.341595 0)
(1.12443 0.158086 0)
(1.65465 0.302592 0)
(0.930139 0.122834 0)
(1.42842 0.257436 0)
(0.767654 0.0917403 0)
(1.22099 0.210748 0)
(0.636698 0.0655027 0)
(1.0384 0.166399 0)
(0.535401 0.0439067 0)
(0.884414 0.125917 0)
(0.460462 0.0264254 0)
(0.760581 0.0904815 0)
(0.40776 0.0125363 0)
(0.665747 0.0606694 0)
(0.373315 0.00191598 0)
(0.596223 0.0363725 0)
(0.353851 -0.0059442 0)
(0.548486 0.0170765 0)
(0.346182 -0.0116514 0)
(0.518897 0.00204807 0)
(0.346919 -0.0155524 0)
(0.503066 -0.00874449 0)
(0.35343 -0.0177149 0)
(0.497113 -0.0160388 0)
(0.363609 -0.0184439 0)
(0.498731 -0.0203297 0)
(0.375662 -0.0181624 0)
(0.504794 -0.0222487 0)
(0.388573 -0.0170976 0)
(0.513756 -0.022687 0)
(0.401298 -0.0155368 0)
(0.524161 -0.0217472 0)
(0.413215 -0.0137064 0)
(0.534707 -0.0199706 0)
(0.423999 -0.0117989 0)
(0.544907 -0.0178182 0)
(0.43345 -0.00994775 0)
(0.554331 -0.0154877 0)
(0.441559 -0.00824829 0)
(0.562695 -0.0131698 0)
(0.448383 -0.00674465 0)
(0.569952 -0.0109797 0)
(0.45403 -0.00544926 0)
(0.576092 -0.00901339 0)
(0.458641 -0.00435694 0)
(0.581215 -0.0073058 0)
(0.462351 -0.00344773 0)
(0.585417 -0.00585115 0)
(0.465301 -0.00269763 0)
(0.588808 -0.00463234 0)
(0.467621 -0.0020884 0)
(0.591513 -0.00362662 0)
(0.469426 -0.00159989 0)
(0.593647 -0.0028091 0)
(0.470814 -0.00121183 0)
(0.595309 -0.00215217 0)
(0.471865 -0.000905409 0)
(0.596595 -0.00162697 0)
(0.472656 -0.000665662 0)
(0.597545 -0.00121584 0)
(0.598435 -0.000862387 0)
(1.03959 0.110632 0)
(1.00911 0.0486988 0)
(1.08235 0.156578 0)
(1.04753 0.119381 0)
(1.10383 0.163988 0)
(1.08805 0.148664 0)
(1.10707 0.157919 0)
(1.11161 0.154472 0)
(1.09639 0.145846 0)
(1.11861 0.149951 0)
(1.07516 0.128119 0)
(1.11694 0.137869 0)
(1.047 0.107263 0)
(1.10558 0.121777 0)
(1.01522 0.086833 0)
(1.08825 0.105028 0)
(0.983588 0.0687676 0)
(1.06764 0.0883282 0)
(0.954782 0.0532225 0)
(1.04651 0.0720691 0)
(0.930015 0.039745 0)
(1.02637 0.056803 0)
(0.909676 0.0276973 0)
(1.00841 0.0428171 0)
(0.894041 0.0163453 0)
(0.993296 0.0295355 0)
(0.883425 0.00511626 0)
(0.98166 0.0162852 0)
(0.878284 -0.00646672 0)
(0.9742 0.00259694 0)
(0.879065 -0.0190835 0)
(0.971471 -0.0120826 0)
(0.886334 -0.0333345 0)
(0.974139 -0.0284539 0)
(0.900896 -0.0497184 0)
(0.982886 -0.0470588 0)
(0.923812 -0.0689112 0)
(0.998601 -0.0686658 0)
(0.956379 -0.0916293 0)
(1.02252 -0.0940579 0)
(1.00023 -0.118594 0)
(1.05589 -0.124148 0)
(1.05733 -0.150471 0)
(1.10059 -0.159819 0)
(1.12998 -0.187757 0)
(1.1588 -0.201861 0)
(1.22077 -0.2306 0)
(1.2331 -0.250843 0)
(1.3325 -0.278521 0)
(1.32652 -0.30686 8.81012e-34)
(1.46802 -0.330043 0)
(1.44245 -0.369209 -8.48e-34)
(1.62985 -0.382218 0)
(1.58452 -0.435826 0)
(1.81951 -0.430061 0)
(1.75624 -0.502588 0)
(2.03649 -0.466535 0)
(1.96006 -0.562571 0)
(2.2772 -0.482435 0)
(2.19666 -0.606318 0)
(2.5324 -0.466898 0)
(2.46316 -0.620332 0)
(2.78599 -0.410662 0)
(2.74182 -0.589098 0)
(3.01575 -0.311864 0)
(3.00627 -0.50132 0)
(3.19576 -0.178184 0)
(3.22287 -0.35491 0)
(3.30934 -0.0268781 0)
(3.37066 -0.168682 0)
(3.35536 0.119354 0)
(3.45326 0.0214887 0)
(3.33794 0.246168 0)
(3.45407 0.19534 0)
(3.26859 0.348445 0)
(3.40755 0.338219 0)
(3.15928 0.422688 0)
(3.3173 0.444208 0)
(3.0185 0.46951 0)
(3.1994 0.515292 0)
(2.84862 0.492559 0)
(3.06015 0.561133 0)
(2.65177 0.494851 0)
(2.90009 0.585663 0)
(2.43283 0.47899 0)
(2.71915 0.590084 0)
(2.19903 0.447385 0)
(2.52059 0.57539 0)
(1.95827 0.402603 0)
(2.30909 0.543348 0)
(1.71924 0.348092 0)
(2.09028 0.496469 0)
(1.49189 0.288517 0)
(1.87032 0.438098 0)
(1.28627 0.228665 0)
(1.65796 0.372022 0)
(1.10985 0.172561 0)
(1.46032 0.302341 0)
(0.965903 0.123181 0)
(1.2859 0.234425 0)
(0.854133 0.0818845 0)
(1.1391 0.17244 0)
(0.771451 0.0485401 0)
(1.02115 0.119054 0)
(0.713582 0.0224133 0)
(0.930826 0.0749461 0)
(0.675645 0.00275799 0)
(0.86503 0.0399847 0)
(0.653272 -0.0112111 0)
(0.819512 0.0136288 0)
(0.642509 -0.0203513 0)
(0.790053 -0.0052762 0)
(0.640037 -0.0254627 0)
(0.773082 -0.0178576 0)
(0.643041 -0.0277956 0)
(0.765013 -0.0252518 0)
(0.649565 -0.0281406 0)
(0.763183 -0.0292116 0)
(0.657776 -0.0267937 0)
(0.765271 -0.0299578 0)
(0.66659 -0.0244987 0)
(0.769813 -0.0287849 0)
(0.675445 -0.0217378 0)
(0.775485 -0.0266728 0)
(0.683746 -0.0188061 0)
(0.781644 -0.0237885 0)
(0.691232 -0.0159323 0)
(0.787726 -0.0206559 0)
(0.697788 -0.0132564 0)
(0.793423 -0.0175356 0)
(0.703391 -0.010864 0)
(0.798536 -0.0146165 0)
(0.708083 -0.00878654 0)
(0.80298 -0.0119972 0)
(0.711944 -0.00702022 0)
(0.806751 -0.00971217 0)
(0.715076 -0.00554483 0)
(0.809889 -0.00776425 0)
(0.717584 -0.00433153 0)
(0.812457 -0.00613444 0)
(0.719566 -0.00334698 0)
(0.81453 -0.0047916 0)
(0.721115 -0.00255466 0)
(0.816175 -0.00370096 0)
(0.722304 -0.00192745 0)
(0.817479 -0.00281619 0)
(0.723222 -0.00140441 0)
(0.818441 -0.00213338 0)
(0.819401 -0.00148289 0)
(1.01978 0.0658243 0)
(1.00423 0.0289203 0)
(1.0597 0.111987 0)
(1.02723 0.0794604 0)
(1.09633 0.136741 0)
(1.06445 0.11203 0)
(1.12245 0.144446 0)
(1.09829 0.128357 0)
(1.13918 0.141212 0)
(1.12265 0.133216 0)
(1.14711 0.131756 0)
(1.14103 0.12994 0)
(1.14684 0.119878 0)
(1.15074 0.122055 0)
(1.14034 0.106791 0)
(1.15451 0.111519 0)
(1.13014 0.0921144 0)
(1.15425 0.0985375 0)
(1.11791 0.0761932 0)
(1.1502 0.0842924 0)
(1.10466 0.0602394 0)
(1.14376 0.0700534 0)
(1.09185 0.044858 0)
(1.1365 0.0556267 0)
(1.08071 0.0296273 0)
(1.12921 0.0406771 0)
(1.07216 0.0139632 0)
(1.12288 0.0248374 0)
(1.06709 -0.00270832 0)
(1.11846 0.00767039 0)
(1.06625 -0.0209977 0)
(1.11667 -0.0112482 0)
(1.0703 -0.041572 0)
(1.11825 -0.0325023 0)
(1.08004 -0.0652482 0)
(1.12387 -0.0567975 0)
(1.09659 -0.0929314 0)
(1.13434 -0.0852201 0)
(1.12111 -0.125615 0)
(1.15104 -0.118573 0)
(1.15505 -0.164328 0)
(1.17482 -0.158095 0)
(1.20053 -0.210103 0)
(1.2079 -0.20529 0)
(1.26 -0.263879 0)
(1.25239 -0.261337 0)
(1.33652 -0.32621 8.81012e-34)
(1.31122 -0.327363 0)
(1.43378 -0.397009 3.57986e-35)
(1.38809 -0.404114 8.81012e-34)
(1.55609 -0.475007 -8.48e-34)
(1.48775 -0.491521 -8.48e-34)
(1.70826 -0.556874 0)
(1.61601 -0.587995 0)
(1.89508 -0.636291 0)
(1.77973 -0.689416 0)
(2.12046 -0.703344 0)
(1.98635 -0.787943 0)
(2.38631 -0.742973 0)
(2.2439 -0.872167 0)
(2.68062 -0.736778 0)
(2.54851 -0.914651 0)
(2.97242 -0.668108 0)
(2.85196 -0.880893 0)
(3.22446 -0.528544 0)
(3.11527 -0.753359 0)
(3.40722 -0.332396 0)
(3.32141 -0.537667 0)
(3.51541 -0.113073 0)
(3.42573 -0.276881 0)
(3.54794 0.101739 0)
(3.46759 -0.0110317 0)
(3.51774 0.287696 0)
(3.43663 0.225538 0)
(3.44759 0.430092 0)
(3.37468 0.408364 0)
(3.3527 0.53215 0)
(3.29049 0.539102 0)
(3.23981 0.603351 0)
(3.19985 0.628182 0)
(3.11089 0.651716 0)
(3.10187 0.69005 0)
(2.9663 0.679484 0)
(2.99062 0.730252 0)
(2.80574 0.686404 0)
(2.86909 0.750646 0)
(2.62992 0.672102 0)
(2.73363 0.751212 0)
(2.44053 0.638167 0)
(2.57926 0.732733 0)
(2.24156 0.587349 0)
(2.41155 0.695444 0)
(2.03671 0.522656 0)
(2.23445 0.642952 0)
(1.83224 0.447083 0)
(2.05267 0.576492 0)
(1.63687 0.365602 0)
(1.87092 0.497709 0)
(1.45943 0.284859 0)
(1.69728 0.411857 0)
(1.30632 0.210447 0)
(1.53758 0.325553 0)
(1.18064 0.145854 0)
(1.39746 0.244732 0)
(1.08232 0.0925319 0)
(1.2799 0.173267 0)
(1.00879 0.0506086 0)
(1.18559 0.113515 0)
(0.956295 0.0192185 0)
(1.11296 0.0661262 0)
(0.920671 -0.00308838 0)
(1.05918 0.0303482 0)
(0.898099 -0.0178724 0)
(1.0209 0.00471425 0)
(0.885288 -0.0267807 0)
(0.994979 -0.0124408 0)
(0.879079 -0.0310517 0)
(0.978292 -0.0230029 0)
(0.877463 -0.0319189 0)
(0.968279 -0.0283414 0)
(0.878848 -0.0308914 0)
(0.963414 -0.0301698 0)
(0.881859 -0.0286363 0)
(0.961478 -0.0296835 0)
(0.885757 -0.0255492 0)
(0.96171 -0.0276867 0)
(0.890039 -0.0221748 0)
(0.963227 -0.0249382 0)
(0.894275 -0.0188193 0)
(0.965425 -0.0217714 0)
(0.898213 -0.0156823 0)
(0.967933 -0.0185545 0)
(0.901721 -0.0128663 0)
(0.970469 -0.0155052 0)
(0.904753 -0.0104096 0)
(0.972857 -0.0127446 0)
(0.907316 -0.00831529 0)
(0.975 -0.0103268 0)
(0.90944 -0.0065629 0)
(0.976859 -0.00825806 0)
(0.911169 -0.00512031 0)
(0.978433 -0.00652058 0)
(0.912557 -0.00394281 0)
(0.979732 -0.00508875 0)
(0.913647 -0.00300809 0)
(0.980801 -0.00390642 0)
(0.914514 -0.00220339 0)
(0.981603 -0.00300044 0)
(0.98245 -0.00208655 0)
(1.01047 0.0432883 0)
(1.00233 0.0184488 0)
(1.03627 0.078664 0)
(1.01549 0.0536608 0)
(1.06778 0.102829 0)
(1.04091 0.0805198 0)
(1.09831 0.116416 0)
(1.07035 0.0978309 0)
(1.12441 0.121214 0)
(1.09773 0.107116 0)
(1.14449 0.119594 0)
(1.12155 0.109853 0)
(1.15872 0.11355 0)
(1.14084 0.107834 0)
(1.16821 0.103672 0)
(1.15571 0.102029 0)
(1.17386 0.0913606 0)
(1.16726 0.0928806 0)
(1.17606 0.0788179 0)
(1.17474 0.0820939 0)
(1.17562 0.0660677 0)
(1.17925 0.0704923 0)
(1.17368 0.052177 0)
(1.18194 0.0575713 0)
(1.17116 0.0368274 0)
(1.18319 0.0431935 0)
(1.16896 0.0196048 0)
(1.18393 0.0270414 0)
(1.16784 0.000132695 0)
(1.18437 0.00879299 0)
(1.16845 -0.0218086 0)
(1.18526 -0.0118661 0)
(1.17149 -0.0467622 0)
(1.18722 -0.0355407 0)
(1.17771 -0.0757608 0)
(1.19088 -0.0630141 0)
(1.1881 -0.109705 0)
(1.19687 -0.0956118 0)
(1.20386 -0.149723 0)
(1.20654 -0.134333 0)
(1.22651 -0.197724 0)
(1.22071 -0.180746 0)
(1.25816 -0.25536 0)
(1.24146 -0.236938 0)
(1.30147 -0.323964 0)
(1.2708 -0.304645 0)
(1.36002 -0.404932 0)
(1.31182 -0.385919 0)
(1.43867 -0.49911 0)
(1.36887 -0.482755 0)
(1.54376 -0.606112 0)
(1.44803 -0.596619 0)
(1.68341 -0.723405 0)
(1.55771 -0.727646 0)
(1.86761 -0.844872 0)
(1.70919 -0.873608 0)
(2.10796 -0.959444 0)
(1.91829 -1.0283 0)
(2.41069 -1.04518 0)
(2.19486 -1.17489 0)
(2.73068 -1.06427 0)
(2.50576 -1.23464 0)
(3.01311 -0.984598 0)
(2.75164 -1.16333 0)
(3.22996 -0.78904 0)
(2.92144 -0.970206 0)
(3.34794 -0.502944 0)
(2.96354 -0.655653 0)
(3.37641 -0.193592 0)
(2.90184 -0.305346 0)
(3.34835 0.0895482 0)
(2.81919 0.0170243 0)
(3.28384 0.323291 0)
(2.75928 0.290044 0)
(3.20444 0.497333 0)
(2.72232 0.487772 0)
(3.13239 0.617919 0)
(2.6936 0.611145 0)
(3.06163 0.701702 0)
(2.68867 0.698949 0)
(2.98243 0.758771 0)
(2.69239 0.769248 0)
(2.89367 0.793219 0)
(2.68058 0.819007 0)
(2.79539 0.809557 0)
(2.64712 0.848927 0)
(2.68218 0.808641 0)
(2.59275 0.864427 0)
(2.54981 0.787951 0)
(2.51301 0.865103 0)
(2.40492 0.749733 0)
(2.41278 0.840333 0)
(2.25041 0.696866 0)
(2.29433 0.797457 0)
(2.09122 0.62863 0)
(2.16817 0.735686 0)
(1.93185 0.546392 0)
(2.03225 0.65708 0)
(1.77622 0.455182 0)
(1.89404 0.567489 0)
(1.62934 0.362057 0)
(1.75909 0.472435 0)
(1.49704 0.27386 0)
(1.63248 0.377023 0)
(1.38337 0.195522 0)
(1.51828 0.286941 0)
(1.28985 0.129939 0)
(1.41937 0.207032 0)
(1.21587 0.0778815 0)
(1.33675 0.140107 0)
(1.15942 0.038563 0)
(1.26996 0.0867964 0)
(1.11778 0.010398 0)
(1.21762 0.0463549 0)
(1.08811 -0.00855174 0)
(1.17779 0.0172365 0)
(1.06762 -0.0202541 0)
(1.14824 -0.00251522 0)
(1.05432 -0.0265487 0)
(1.12695 -0.0150474 0)
(1.04616 -0.0289359 0)
(1.11221 -0.0220037 0)
(1.04147 -0.0287456 0)
(1.10218 -0.0249993 0)
(1.03928 -0.0270936 0)
(1.09578 -0.0254886 0)
(1.0387 -0.0245388 0)
(1.09193 -0.0243644 0)
(1.03916 -0.0215039 0)
(1.08983 -0.0222336 0)
(1.04026 -0.0183791 0)
(1.08895 -0.01965 0)
(1.04166 -0.0153899 0)
(1.08887 -0.0169092 0)
(1.04315 -0.0126703 0)
(1.08928 -0.0142301 0)
(1.04458 -0.0102787 0)
(1.08994 -0.011757 0)
(1.04588 -0.0082244 0)
(1.0907 -0.00956012 0)
(1.04702 -0.00649677 0)
(1.09147 -0.00765934 0)
(1.04799 -0.00505923 0)
(1.09218 -0.00605712 0)
(1.04879 -0.00390499 0)
(1.09282 -0.00470411 0)
(1.04945 -0.00288846 0)
(1.09332 -0.00365972 0)
(1.09389 -0.0025621 0)
(1.00596 0.0296813 0)
(1.00138 0.0124937 0)
(1.02226 0.0557208 0)
(1.00942 0.0373545 0)
(1.04484 0.0754022 0)
(1.02631 0.057946 0)
(1.06992 0.0884466 0)
(1.04808 0.0727472 0)
(1.09489 0.0956624 0)
(1.07111 0.0821462 0)
(1.11786 0.0979899 0)
(1.09356 0.0868798 0)
(1.13796 0.0962397 0)
(1.11445 0.0877317 0)
(1.15476 0.0910954 0)
(1.13313 0.0852311 0)
(1.1679 0.0833199 0)
(1.14914 0.0797465 0)
(1.17791 0.0736384 0)
(1.16221 0.0720789 0)
(1.18558 0.0622983 0)
(1.17277 0.0628263 0)
(1.19136 0.049127 0)
(1.18136 0.0517928 0)
(1.1958 0.03398 0)
(1.18812 0.0387528 0)
(1.19918 0.016861 0)
(1.19351 0.0236616 0)
(1.20168 -0.00247263 0)
(1.19746 0.00628968 0)
(1.20387 -0.0246736 0)
(1.20024 -0.0140574 0)
(1.20633 -0.0505952 0)
(1.20234 -0.0379939 0)
(1.2097 -0.081467 0)
(1.20425 -0.0663846 0)
(1.21469 -0.118767 0)
(1.20638 -0.100607 0)
(1.22252 -0.163866 0)
(1.20953 -0.142158 0)
(1.23454 -0.218441 0)
(1.21451 -0.19277 0)
(1.25241 -0.284728 0)
(1.22266 -0.254806 0)
(1.27874 -0.365263 0)
(1.23579 -0.330977 0)
(1.31735 -0.462769 0)
(1.25681 -0.424525 0)
(1.37381 -0.579969 0)
(1.29016 -0.539222 0)
(1.45635 -0.718997 0)
(1.34271 -0.679154 0)
(1.57682 -0.880426 0)
(1.42492 -0.848115 0)
(1.75203 -1.0618 0)
(1.55243 -1.04882 0)
(2.00205 -1.25372 0)
(1.74625 -1.27833 0)
(2.29925 -1.38868 0)
(1.99947 -1.47208 0)
(2.54298 -1.38667 0)
(2.18635 -1.47838 0)
(2.68101 -1.25122 0)
(2.10043 -1.30135 0)
(2.69428 -0.967962 0)
(1.87219 -0.983476 -2.13966e-18)
(2.52926 -0.568498 0)
(1.56283 -0.490637 1.13501e-16)
(2.32883 -0.164526 0)
(1.18254 -0.104914 0)
(2.21616 0.174737 0)
(1.12682 0.129687 0)
(2.18033 0.416448 0)
(1.19901 0.325873 0)
(2.1878 0.566713 0)
(1.26565 0.48031 -1.39376e-16)
(2.24608 0.66446 0)
(1.35288 0.552857 0)
(2.32348 0.743835 0)
(1.54296 0.621557 0)
(2.3925 0.810721 0)
(1.7424 0.700226 0)
(2.43532 0.861089 0)
(1.90995 0.776184 0)
(2.44412 0.893325 0)
(2.02906 0.840132 0)
(2.42236 0.912544 0)
(2.10231 0.886182 0)
(2.37448 0.912727 0)
(2.13455 0.912984 0)
(2.30281 0.885818 0)
(2.13247 0.912003 0)
(2.21236 0.834569 0)
(2.09698 0.887907 0)
(2.10832 0.7635 0)
(2.04459 0.839725 0)
(1.99488 0.679106 0)
(1.9717 0.770524 0)
(1.87799 0.586497 0)
(1.88648 0.684377 0)
(1.76318 0.489582 0)
(1.79544 0.587239 0)
(1.65434 0.39249 0)
(1.70346 0.48587 0)
(1.5548 0.300798 0)
(1.61445 0.38648 0)
(1.46666 0.219218 0)
(1.53215 0.295175 0)
(1.39102 0.150572 0)
(1.45894 0.215745 0)
(1.32823 0.0957164 0)
(1.39575 0.149589 0)
(1.27765 0.0540031 0)
(1.3426 0.0969259 0)
(1.238 0.0238099 0)
(1.29899 0.0568878 0)
(1.20765 0.00308746 0)
(1.26403 0.0278404 0)
(1.18489 -0.0101935 0)
(1.23656 0.0077107 0)
(1.1683 -0.0178776 0)
(1.21544 -0.00541629 0)
(1.15658 -0.0216138 0)
(1.19961 -0.0132811 0)
(1.14851 -0.0226948 0)
(1.18803 -0.0174109 0)
(1.1431 -0.0220457 0)
(1.17973 -0.018963 0)
(1.13967 -0.0203788 0)
(1.17393 -0.0187958 0)
(1.13761 -0.0181745 0)
(1.16999 -0.0175976 0)
(1.13653 -0.0157425 0)
(1.16742 -0.0158234 0)
(1.1361 -0.0133152 0)
(1.16582 -0.0137994 0)
(1.13608 -0.0110429 0)
(1.16491 -0.011741 0)
(1.1363 -0.00900294 0)
(1.16446 -0.00978161 0)
(1.13664 -0.00722854 0)
(1.1643 -0.00799537 0)
(1.13701 -0.00571019 0)
(1.16431 -0.00643145 0)
(1.13738 -0.0044642 0)
(1.16441 -0.00506686 0)
(1.13771 -0.00333632 0)
(1.16455 -0.00398873 0)
(1.16474 -0.00281821 0)
(1.00371 0.0208648 0)
(1.0009 0.00878233 0)
(1.01454 0.0399249 0)
(1.00623 0.0265281 0)
(1.03054 0.0552663 0)
(1.01792 0.0419396 0)
(1.04956 0.0662852 0)
(1.03384 0.0537282 0)
(1.06988 0.073202 0)
(1.05179 0.0618287 0)
(1.09021 0.0764837 0)
(1.07042 0.0665532 0)
(1.10967 0.0765928 0)
(1.08893 0.0682664 0)
(1.1276 0.0738816 0)
(1.10665 0.0673028 0)
(1.14341 0.0687367 0)
(1.123 0.0639357 0)
(1.15698 0.0615609 0)
(1.13754 0.0585084 0)
(1.16853 0.0525175 0)
(1.15021 0.0512764 0)
(1.17814 0.0415489 0)
(1.16108 0.0421881 0)
(1.18581 0.0285393 0)
(1.17006 0.0310834 0)
(1.19169 0.0132355 0)
(1.17708 0.0177847 0)
(1.19592 -0.00495771 0)
(1.18226 0.00205213 0)
(1.19862 -0.0267754 0)
(1.18545 -0.016751 0)
(1.20007 -0.0529657 0)
(1.18678 -0.039448 0)
(1.20069 -0.0845163 0)
(1.18637 -0.0670064 0)
(1.20078 -0.122774 0)
(1.18431 -0.100694 0)
(1.20078 -0.169588 0)
(1.18071 -0.14216 0)
(1.20154 -0.227337 0)
(1.1759 -0.193531 0)
(1.20433 -0.298906 0)
(1.17051 -0.257588 0)
(1.21124 -0.387844 0)
(1.16572 -0.337891 0)
(1.22574 -0.498556 0)
(1.16363 -0.439021 0)
(1.2534 -0.636367 0)
(1.16787 -0.566882 1.731e-32)
(1.30322 -0.807353 0)
(1.18477 -0.728978 -1.67172e-32)
(1.38951 -1.01814 0)
(1.22469 -0.934401 0)
(1.53283 -1.27344 0)
(1.30341 -1.19214 0)
(1.74636 -1.5167 0)
(1.43906 -1.49186 0)
(1.90908 -1.59984 0)
(1.52822 -1.6348 0)
(1.78339 -1.4022 0)
(1.30653 -1.35269 0)
(1.26988 -0.955039 -2.13966e-18)
(0.694579 -0.730275 0)
(0.846663 -0.42402 1.11362e-16)
(0.512699 -0.860781 -2.13966e-18)
(0.261401 -0.101339 1.13501e-16)
(0.255917 -0.976897 1.13501e-16)
(-0.0224873 -0.0160209 0)
(-0.0304123 -1.06841 0)
(0.0854364 0.107842 0)
(-0.00343818 -1.1573 0)
(0.222871 0.280915 -1.39376e-16)
(0.103796 -1.39484 0)
(0.36023 0.399799 -1.39376e-16)
(-0.122799 0.152199 -3.44738e-16)
(0.653912 0.480534 0)
(0.0294091 0.259174 0)
(0.97481 0.560781 0)
(0.254515 0.300658 0)
(1.26426 0.655216 0)
(0.559146 0.410775 0)
(1.50662 0.74784 0)
(0.861001 0.533829 0)
(1.68934 0.826789 0)
(1.12498 0.657413 0)
(1.81279 0.881072 0)
(1.3363 0.76273 0)
(1.88981 0.907084 0)
(1.49301 0.835959 0)
(1.92606 0.910157 0)
(1.60145 0.875759 0)
(1.9296 0.890622 0)
(1.66553 0.884364 0)
(1.90726 0.844066 0)
(1.70045 0.862064 0)
(1.86349 0.772907 0)
(1.70846 0.814293 0)
(1.80467 0.683701 0)
(1.69564 0.743197 0)
(1.73679 0.583928 0)
(1.66612 0.655125 0)
(1.66464 0.481294 0)
(1.62531 0.558014 0)
(1.59274 0.382533 0)
(1.57756 0.458376 0)
(1.52513 0.293344 0)
(1.52735 0.362787 0)
(1.46405 0.216346 0)
(1.47785 0.27683 0)
(1.41032 0.15223 0)
(1.43197 0.203312 0)
(1.36404 0.10099 0)
(1.39032 0.143207 0)
(1.32508 0.0618001 0)
(1.35366 0.0958528 0)
(1.29299 0.0330795 0)
(1.32229 0.0599335 0)
(1.26713 0.0129336 0)
(1.29606 0.0335688 0)
(1.24677 -0.000486491 0)
(1.27459 0.0149458 0)
(1.2311 -0.00883406 0)
(1.25742 0.00238835 0)
(1.21929 -0.0135016 0)
(1.24396 -0.00560384 0)
(1.21057 -0.0155899 0)
(1.23363 -0.0102468 0)
(1.20428 -0.015948 0)
(1.22585 -0.0125029 0)
(1.19982 -0.015221 0)
(1.22009 -0.0131403 0)
(1.19674 -0.0138726 0)
(1.2159 -0.0127381 0)
(1.19466 -0.0122206 0)
(1.2129 -0.0117218 0)
(1.19331 -0.0104752 0)
(1.21078 -0.0103899 0)
(1.19247 -0.00877163 0)
(1.20933 -0.00894233 0)
(1.19198 -0.00719874 0)
(1.20835 -0.00750472 0)
(1.19172 -0.00579095 0)
(1.20772 -0.00616965 0)
(1.1916 -0.00459605 0)
(1.2073 -0.0049475 0)
(1.19156 -0.00347684 0)
(1.20706 -0.0039529 0)
(1.20686 -0.00282976 0)
(1.00255 0.0148653 0)
(1.00064 0.00623504 0)
(1.01018 0.0287842 0)
(1.00445 0.018898 0)
(1.02188 0.0404333 0)
(1.01298 0.0302334 0)
(1.03635 0.0491919 0)
(1.02497 0.0392592 0)
(1.05245 0.0550511 0)
(1.039 0.0457304 0)
(1.06925 0.0582031 0)
(1.05413 0.049756 0)
(1.086 0.0588743 0)
(1.06965 0.0515135 0)
(1.10213 0.0572855 0)
(1.08502 0.0511798 0)
(1.11715 0.0536672 0)
(1.09969 0.0489161 0)
(1.13075 0.0482238 0)
(1.11327 0.0449 0)
(1.14279 0.0410104 0)
(1.12549 0.0392444 0)
(1.15306 0.0319124 0)
(1.13615 0.0319102 0)
(1.16139 0.0207207 0)
(1.14501 0.0227603 0)
(1.16762 0.00716189 0)
(1.15185 0.0115477 0)
(1.17174 -0.00915652 0)
(1.15644 -0.002067 0)
(1.17361 -0.0288677 0)
(1.15857 -0.0186182 0)
(1.17304 -0.0528944 0)
(1.15798 -0.0388753 0)
(1.16986 -0.0824464 0)
(1.15431 -0.063833 0)
(1.16396 -0.119069 0)
(1.14721 -0.0947918 0)
(1.15528 -0.164736 0)
(1.13628 -0.133475 0)
(1.14392 -0.222037 0)
(1.12116 -0.182176 0)
(1.13031 -0.294416 0)
(1.10161 -0.243978 0)
(1.11547 -0.386457 0)
(1.07761 -0.323048 0)
(1.10151 -0.504291 1.731e-32)
(1.04972 -0.42506 0)
(1.09246 -0.656108 7.02273e-34)
(1.01957 -0.557832 1.731e-32)
(1.09561 -0.852747 -1.67172e-32)
(0.99088 -0.732126 -1.67172e-32)
(1.12341 -1.10713 0)
(0.969521 -0.962208 0)
(1.19014 -1.41135 0)
(0.970238 -1.25887 0)
(1.2396 -1.61783 0)
(0.954758 -1.54132 0)
(0.955125 -1.37526 0)
(0.683978 -1.35033 1.81364e-18)
(0.458301 -0.699238 0)
(0.154589 -0.647119 0)
(-0.158137 -0.155685 0)
(-0.0931608 -0.228426 0)
(0.0064798 0 0)
(0 -0.0828875 0)
(0.0410209 0 0)
(0 -0.0201653 0)
(0.0064831 0 0)
(0 -0.0143367 0)
(-0.0200224 0 0)
(0 -0.00315116 0)
(-0.0192438 0.00695918 -2.05362e-16)
(0 0.00324975 0)
(-0.443561 0.0595386 -2.05362e-16)
(-0.292577 -0.412369 -2.05362e-16)
(-0.401061 0.119315 0)
(-0.215761 -0.859781 0)
(-0.155254 0.188149 0)
(-0.484862 0.0548504 0)
(0.167632 0.311393 0)
(-0.294014 0.087888 0)
(0.488131 0.453815 0)
(-0.0216034 0.213331 0)
(0.775296 0.595978 0)
(0.264189 0.370248 0)
(1.01484 0.716327 0)
(0.525696 0.523181 0)
(1.20141 0.801246 0)
(0.750481 0.649393 0)
(1.33791 0.846569 0)
(0.936535 0.73926 0)
(1.43552 0.854082 0)
(1.08308 0.786753 0)
(1.50139 0.832546 0)
(1.19863 0.796197 0)
(1.54066 0.785626 0)
(1.28591 0.775016 0)
(1.55765 0.715206 0)
(1.34973 0.726212 0)
(1.55586 0.629129 0)
(1.39149 0.656918 0)
(1.53974 0.534849 0)
(1.4146 0.574131 0)
(1.5134 0.438822 0)
(1.42238 0.484717 0)
(1.48102 0.347091 0)
(1.41835 0.395169 0)
(1.44644 0.264926 0)
(1.40579 0.311403 0)
(1.41235 0.195429 0)
(1.38856 0.237403 0)
(1.38017 0.139074 0)
(1.36876 0.175391 0)
(1.35096 0.0948001 0)
(1.34842 0.125059 0)
(1.32537 0.0610698 0)
(1.32888 0.0855216 0)
(1.3035 0.0360754 0)
(1.31098 0.0554413 0)
(1.28523 0.0181814 0)
(1.29518 0.033221 0)
(1.27027 0.0058817 0)
(1.28164 0.0173416 0)
(1.25829 -0.00215405 0)
(1.2703 0.00637392 0)
(1.24889 -0.00701675 0)
(1.26102 -0.000844639 0)
(1.24165 -0.00958955 0)
(1.25357 -0.00526442 0)
(1.23616 -0.0105815 0)
(1.2477 -0.00765085 0)
(1.23206 -0.0105382 0)
(1.24312 -0.00863152 0)
(1.22903 -0.00986328 0)
(1.2396 -0.00868969 0)
(1.22682 -0.00884198 0)
(1.23693 -0.00818011 0)
(1.22523 -0.00766666 0)
(1.23492 -0.00735312 0)
(1.2241 -0.00647019 0)
(1.23341 -0.00637732 0)
(1.22331 -0.00532343 0)
(1.23232 -0.00538036 0)
(1.22277 -0.00430424 0)
(1.2315 -0.0044033 0)
(1.22239 -0.0033081 0)
(1.23096 -0.0035802 0)
(1.23039 -0.00260316 0)
(1.00188 0.0105269 0)
(1.00049 0.00435067 0)
(1.00757 0.0205291 0)
(1.00339 0.0132079 0)
(1.01652 0.0291237 0)
(1.00996 0.0212897 0)
(1.02787 0.0357859 0)
(1.01938 0.0279057 0)
(1.04082 0.0403924 0)
(1.0307 0.0327871 0)
(1.05465 0.0430093 0)
(1.04316 0.0359236 0)
(1.06877 0.043755 0)
(1.05621 0.0373908 0)
(1.08266 0.0427491 0)
(1.06936 0.0372891 0)
(1.09587 0.0401063 0)
(1.08212 0.0357053 0)
(1.10805 0.0359169 0)
(1.09407 0.0327205 0)
(1.11892 0.0301901 0)
(1.1049 0.0283791 0)
(1.12819 0.022842 0)
(1.1143 0.0226365 0)
(1.13557 0.0136855 0)
(1.12195 0.0153808 0)
(1.14074 0.00243485 0)
(1.12751 0.00638396 0)
(1.14336 -0.0113369 0)
(1.13057 -0.00468668 0)
(1.14305 -0.0282738 0)
(1.1307 -0.0183122 0)
(1.13935 -0.0492383 0)
(1.12737 -0.0351749 0)
(1.1317 -0.0753515 0)
(1.11993 -0.0561821 0)
(1.11946 -0.108101 0)
(1.10759 -0.0825509 0)
(1.1019 -0.149493 0)
(1.08939 -0.115918 0)
(1.07824 -0.202257 0)
(1.06419 -0.158512 0)
(1.04767 -0.270144 0)
(1.03065 -0.213409 0)
(1.00953 -0.358355 0)
(0.987254 -0.284908 0)
(0.963608 -0.47421 0)
(0.932425 -0.379138 0)
(0.910675 -0.628082 0)
(0.864716 -0.504898 2.67011e-33)
(0.853311 -0.834178 0)
(0.783207 -0.674762 -2.64177e-33)
(0.795643 -1.10157 0)
(0.688278 -0.904541 0)
(0.714788 -1.37155 0)
(0.580425 -1.17801 0)
(0.455083 -1.2502 1.81364e-18)
(0.335067 -1.28161 0)
(-0.108635 -0.654734 1.81364e-18)
(-0.17347 -0.787214 1.81364e-18)
(0.454319 -0.150677 0)
(-0.185905 0.243611 0)
(0.0702859 0 0)
(0 -0.0530355 0)
(0.0587934 0 0)
(0 0.00976475 0)
(0.00211447 0 0)
(0 -0.016043 0)
(0.000372145 0 0)
(0 -0.00025684 0)
(8.83878e-07 0 0)
(0 3.06535e-06 0)
(-0.0146909 0 0)
(0 -0.00407642 0)
(-0.0800546 0 0)
(0 -0.00347162 0)
(0.259854 -0.0168968 0)
(0 0.00329689 0)
(-0.65521 -0.042707 0)
(-0.336042 -0.671795 0)
(-0.47898 0.00453558 0)
(-0.649991 -0.0883422 0)
(-0.23403 0.143985 0)
(-0.528039 -0.0316195 0)
(0.0184624 0.310274 0)
(-0.330372 0.117755 0)
(0.259914 0.465612 0)
(-0.120143 0.28173 0)
(0.481176 0.593365 0)
(0.0901026 0.428131 0)
(0.676688 0.682414 0)
(0.292007 0.543748 0)
(0.843646 0.729852 0)
(0.477053 0.619795 0)
(0.981897 0.739555 0)
(0.644123 0.657946 0)
(1.09511 0.717286 0)
(0.792222 0.661802 0)