/*--------------------------------*- C++ -*----------------------------------*\
| =========                 |                                                 |
| \\      /  F ield         | OpenFOAM: The Open Source CFD Toolbox           |
|  \\    /   O peration     | Version:  2206                                  |
|   \\  /    A nd           | Website:  www.openfoam.com                      |
|    \\/     M anipulation  |                                                 |
\*---------------------------------------------------------------------------*/
FoamFile
{
    version     2.0;
    format      ascii;
    arch        "LSB;label=32;scalar=64";
    class       volScalarField;
    location    "0.6";
    object      k;
}
// * * * * * * * * * * * * * * * * * * * * * * * * * * * * * * * * * * * * * //

dimensions      [0 2 -2 0 0 0 0];

internalField   nonuniform List<scalar> 
1875
(
8.55203e-05
5.3168e-05
3.7659e-05
2.9156e-05
2.40641e-05
2.10189e-05
1.92991e-05
1.84619e-05
1.81958e-05
1.8264e-05
1.84953e-05
1.8781e-05
1.90645e-05
1.93248e-05
1.9561e-05
1.97821e-05
1.9999e-05
2.02301e-05
2.04932e-05
2.08067e-05
2.11907e-05
2.16687e-05
2.22696e-05
2.30297e-05
2.39946e-05
2.52211e-05
2.67794e-05
2.87545e-05
3.12453e-05
3.43582e-05
3.81956e-05
4.28395e-05
4.83332e-05
5.46627e-05
6.17154e-05
6.91963e-05
7.60547e-05
8.02424e-05
8.09722e-05
7.79067e-05
7.15886e-05
6.32072e-05
5.42228e-05
4.58524e-05
3.88399e-05
3.33715e-05
2.93237e-05
2.64179e-05
2.43721e-05
2.29468e-05
2.19578e-05
2.12717e-05
2.07952e-05
2.04636e-05
2.02325e-05
2.00712e-05
1.99588e-05
1.98806e-05
1.98262e-05
1.97888e-05
1.97633e-05
1.97459e-05
1.97343e-05
1.97268e-05
1.97219e-05
1.97189e-05
1.97172e-05
1.97163e-05
1.97158e-05
1.97158e-05
1.97159e-05
1.97161e-05
1.97165e-05
1.97169e-05
1.97172e-05
8.51359e-05
5.37134e-05
3.78191e-05
2.87548e-05
2.32567e-05
1.97406e-05
1.75146e-05
1.61809e-05
1.54755e-05
1.52023e-05
1.52065e-05
1.53685e-05
1.56031e-05
1.58563e-05
1.60989e-05
1.63191e-05
1.65054e-05
1.66634e-05
1.68046e-05
1.69393e-05
1.70771e-05
1.72272e-05
1.73987e-05
1.76013e-05
1.78446e-05
1.81383e-05
1.84922e-05
1.89159e-05
1.94174e-05
2.00027e-05
2.0675e-05
2.14408e-05
2.23257e-05
2.33949e-05
2.47651e-05
2.65703e-05
2.88701e-05
3.16437e-05
3.41454e-05
3.59018e-05
3.65189e-05
3.58401e-05
3.40154e-05
3.14249e-05
2.8533e-05
2.57776e-05
2.34128e-05
2.15361e-05
2.01319e-05
1.91242e-05
1.842e-05
1.7935e-05
1.76024e-05
1.73735e-05
1.72147e-05
1.71032e-05
1.70238e-05
1.6967e-05
1.69257e-05
1.68952e-05
1.68726e-05
1.68559e-05
1.68436e-05
1.68345e-05
1.68279e-05
1.68232e-05
1.68197e-05
1.68172e-05
1.68155e-05
1.68143e-05
1.68134e-05
1.68129e-05
1.68126e-05
1.68123e-05
1.6811e-05
8.50295e-05
5.35901e-05
3.78408e-05
2.87173e-05
2.29458e-05
1.91015e-05
1.64877e-05
1.47019e-05
1.35139e-05
1.27705e-05
1.23561e-05
1.21778e-05
1.21597e-05
1.22412e-05
1.23764e-05
1.25328e-05
1.26907e-05
1.28265e-05
1.29352e-05
1.30167e-05
1.30725e-05
1.31048e-05
1.31161e-05
1.31082e-05
1.30812e-05
1.30327e-05
1.29573e-05
1.28449e-05
1.26802e-05
1.2442e-05
1.21057e-05
1.16557e-05
1.11094e-05
1.05401e-05
1.00752e-05
9.85637e-06
1.00157e-05
1.07551e-05
1.20112e-05
1.35734e-05
1.5153e-05
1.64425e-05
1.72381e-05
1.7477e-05
1.72281e-05
1.66568e-05
1.59509e-05
1.52625e-05
1.46841e-05
1.42495e-05
1.3951e-05
1.37608e-05
1.3647e-05
1.35824e-05
1.35468e-05
1.35268e-05
1.35147e-05
1.35062e-05
1.34993e-05
1.3493e-05
1.34873e-05
1.34822e-05
1.34776e-05
1.34734e-05
1.34699e-05
1.3467e-05
1.34647e-05
1.34629e-05
1.34615e-05
1.34604e-05
1.34596e-05
1.3459e-05
1.34585e-05
1.3458e-05
1.34566e-05
8.49814e-05
5.3332e-05
3.75734e-05
2.85058e-05
2.27436e-05
1.88321e-05
1.60646e-05
1.40624e-05
1.26127e-05
1.15813e-05
1.0869e-05
1.04065e-05
1.01373e-05
1.00129e-05
9.99135e-06
1.00373e-05
1.01243e-05
1.02289e-05
1.03301e-05
1.04164e-05
1.04804e-05
1.05183e-05
1.05269e-05
1.05035e-05
1.04433e-05
1.03376e-05
1.01712e-05
9.92157e-06
9.55743e-06
9.04008e-06
8.33287e-06
7.42769e-06
6.381e-06
5.32247e-06
4.40595e-06
3.72748e-06
3.33694e-06
3.2645e-06
3.64203e-06
4.4088e-06
5.45305e-06
6.60975e-06
7.71132e-06
8.62341e-06
9.27844e-06
9.68427e-06
9.89799e-06
9.9971e-06
1.00528e-05
1.01136e-05
1.02002e-05
1.03124e-05
1.04389e-05
1.05662e-05
1.06833e-05
1.07834e-05
1.0864e-05
1.09257e-05
1.0971e-05
1.10027e-05
1.10241e-05
1.10379e-05
1.10466e-05
1.10518e-05
1.10545e-05
1.10559e-05
1.10564e-05
1.10564e-05
1.10563e-05
1.1056e-05
1.10558e-05
1.10555e-05
1.10552e-05
1.10548e-05
1.10533e-05
8.49613e-05
5.31739e-05
3.73093e-05
2.82228e-05
2.24799e-05
1.8583e-05
1.58034e-05
1.37563e-05
1.22245e-05
1.10771e-05
1.02286e-05
9.62146e-06
9.2116e-06
8.96065e-06
8.8325e-06
8.79573e-06
8.82279e-06
8.89274e-06
8.98282e-06
9.07579e-06
9.15872e-06
9.22214e-06
9.25769e-06
9.25576e-06
9.20709e-06
9.09137e-06
8.88129e-06
8.53944e-06
8.01871e-06
7.26909e-06
6.26223e-06
5.03966e-06
3.75364e-06
2.60785e-06
1.74582e-06
1.16706e-06
8.29817e-07
6.90484e-07
7.65348e-07
1.0637e-06
1.57543e-06
2.26667e-06
3.06561e-06
3.8814e-06
4.63665e-06
5.29109e-06
5.83856e-06
6.3e-06
6.70814e-06
7.09164e-06
7.46574e-06
7.83144e-06
8.18031e-06
8.50082e-06
8.78314e-06
9.02157e-06
9.21494e-06
9.36613e-06
9.48035e-06
9.56397e-06
9.62345e-06
9.66462e-06
9.69243e-06
9.71077e-06
9.72263e-06
9.73012e-06
9.73471e-06
9.73747e-06
9.73908e-06
9.73999e-06
9.74048e-06
9.74072e-06
9.74078e-06
9.74047e-06
9.7386e-06
8.49527e-05
5.30934e-05
3.71397e-05
2.79976e-05
2.22357e-05
1.83417e-05
1.55715e-05
1.35287e-05
1.19892e-05
1.08201e-05
9.93844e-06
9.28866e-06
8.83029e-06
8.52934e-06
8.35542e-06
8.28074e-06
8.27959e-06
8.33004e-06
8.41183e-06
8.50679e-06
8.59965e-06
8.67749e-06
8.72596e-06
8.73013e-06
8.66957e-06
8.51418e-06
8.22331e-06
7.74551e-06
7.02263e-06
6.0074e-06
4.71213e-06
3.27776e-06
1.98409e-06
1.03658e-06
4.8362e-07
1.98468e-07
7.71749e-08
3.94433e-08
5.43572e-08
1.3377e-07
3.14283e-07
6.24013e-07
1.06574e-06
1.60044e-06
2.18082e-06
2.77186e-06
3.34753e-06
3.90436e-06
4.45052e-06
4.9954e-06
5.54183e-06
6.08312e-06
6.60535e-06
7.09199e-06
7.52832e-06
7.90503e-06
8.21786e-06
8.46859e-06
8.663e-06
8.80915e-06
8.91593e-06
8.99193e-06
9.04472e-06
9.08058e-06
9.10445e-06
9.12003e-06
9.13003e-06
9.13634e-06
9.14024e-06
9.14263e-06
9.14406e-06
9.1449e-06
9.14533e-06
9.14519e-06
9.14301e-06
8.49487e-05
5.30533e-05
3.7045e-05
2.7855e-05
2.20616e-05
1.81525e-05
1.53798e-05
1.33417e-05
1.18096e-05
1.06469e-05
9.76882e-06
9.11899e-06
8.65682e-06
8.34942e-06
8.16872e-06
8.0881e-06
8.0826e-06
8.12964e-06
8.20975e-06
8.30509e-06
8.39923e-06
8.47634e-06
8.51778e-06
8.50361e-06
8.40275e-06
8.17356e-06
7.76414e-06
7.11337e-06
6.1612e-06
4.88253e-06
3.36696e-06
1.89665e-06
8.30088e-07
2.53534e-07
5.71406e-08
9.12553e-09
1.58442e-09
6.07566e-10
1.35534e-09
6.6655e-09
3.01743e-08
1.18183e-07
3.11641e-07
6.05821e-07
9.82566e-07
1.42349e-06
1.90822e-06
2.42846e-06
2.98346e-06
3.57316e-06
4.19251e-06
4.82868e-06
5.46194e-06
6.0695e-06
6.62999e-06
7.12697e-06
7.55091e-06
7.89946e-06
8.17657e-06
8.38989e-06
8.54928e-06
8.66515e-06
8.74728e-06
8.80417e-06
8.84273e-06
8.86836e-06
8.88507e-06
8.8958e-06
8.90257e-06
8.90678e-06
8.90936e-06
8.91092e-06
8.91178e-06
8.91187e-06
8.90955e-06
8.49468e-05
5.30328e-05
3.69931e-05
2.77711e-05
2.19516e-05
1.80246e-05
1.52422e-05
1.32019e-05
1.16734e-05
1.05187e-05
9.65112e-06
9.01267e-06
8.56149e-06
8.26419e-06
8.09168e-06
8.01736e-06
8.01651e-06
8.06667e-06
8.14816e-06
8.24305e-06
8.33384e-06
8.4021e-06
8.42564e-06
8.37573e-06
8.21342e-06
7.88884e-06
7.34209e-06
6.50813e-06
5.33452e-06
3.83758e-06
2.21926e-06
9.10218e-07
2.15071e-07
2.41945e-08
1.45115e-09
0.00015
0.00015
0.00015
0.00015
0.00015
7.61993e-10
6.72557e-09
5.17266e-08
1.86236e-07
4.097e-07
7.15234e-07
1.09266e-06
1.53634e-06
2.04471e-06
2.61576e-06
3.24285e-06
3.91148e-06
4.5996e-06
5.28061e-06
5.9276e-06
6.51799e-06
7.03546e-06
7.47207e-06
7.82743e-06
8.10707e-06
8.3203e-06
8.4783e-06
8.5923e-06
8.67255e-06
8.72777e-06
8.76497e-06
8.78956e-06
8.80551e-06
8.8157e-06
8.8221e-06
8.82606e-06
8.82847e-06
8.82985e-06
8.83023e-06
8.82794e-06
8.49457e-05
5.30215e-05
3.69635e-05
2.77218e-05
2.18845e-05
1.79435e-05
1.51515e-05
1.31064e-05
1.15781e-05
1.04279e-05
9.56827e-06
8.94028e-06
8.50076e-06
8.21511e-06
8.05327e-06
7.98787e-06
7.99377e-06
8.04826e-06
8.1313e-06
8.22434e-06
8.30849e-06
8.36255e-06
8.35989e-06
8.26551e-06
8.03388e-06
7.6091e-06
6.92734e-06
5.92427e-06
4.56155e-06
2.91349e-06
1.32181e-06
3.17867e-07
2.67725e-08
0.00015
0.00015
0.00015
0.00015
0.00015
0.00015
0.00015
0.00015
6.90167e-11
3.09069e-09
3.7458e-08
1.50572e-07
3.48091e-07
6.28886e-07
9.9197e-07
1.43725e-06
1.96321e-06
2.56434e-06
3.22757e-06
3.93164e-06
4.64921e-06
5.35048e-06
6.00758e-06
6.59841e-06
7.10899e-06
7.53381e-06
7.87516e-06
8.14047e-06
8.34046e-06
8.48701e-06
8.59165e-06
8.6646e-06
8.71435e-06
8.74759e-06
8.76937e-06
8.7834e-06
8.79229e-06
8.79784e-06
8.80124e-06
8.80322e-06
8.80396e-06
8.80181e-06
8.49451e-05
5.30149e-05
3.6946e-05
2.76921e-05
2.18436e-05
1.78932e-05
1.50942e-05
1.30449e-05
1.15155e-05
1.03674e-05
9.51272e-06
8.89195e-06
8.46105e-06
8.18445e-06
8.03114e-06
7.97303e-06
7.98444e-06
8.04225e-06
8.12583e-06
8.2157e-06
8.29137e-06
8.32889e-06
8.29769e-06
8.15795e-06
7.85952e-06
7.34305e-06
6.54341e-06
5.39898e-06
3.88802e-06
2.15457e-06
6.95944e-07
7.40657e-08
2.20107e-09
0.00015
0.00015
0.00015
0.00015
0.00015
0.00015
0.00015
0.00015
0.00015
1.3151e-10
4.48547e-09
4.68846e-08
1.62702e-07
3.62825e-07
6.52026e-07
1.03305e-06
1.5062e-06
2.06791e-06
2.70754e-06
3.40618e-06
4.1374e-06
4.87023e-06
5.57339e-06
6.2199e-06
6.79034e-06
7.27429e-06
7.67e-06
7.98261e-06
8.2218e-06
8.39949e-06
8.52794e-06
8.61851e-06
8.68089e-06
8.72296e-06
8.75078e-06
8.76883e-06
8.78035e-06
8.78758e-06
8.79204e-06
8.79469e-06
8.79583e-06
8.79387e-06
8.49448e-05
5.30111e-05
3.69357e-05
2.76746e-05
2.18192e-05
1.78629e-05
1.50594e-05
1.30073e-05
1.14768e-05
1.03297e-05
9.47793e-06
8.86164e-06
8.43632e-06
8.16571e-06
8.01814e-06
7.96494e-06
7.97999e-06
8.03974e-06
8.12292e-06
8.20903e-06
8.27612e-06
8.29794e-06
8.24088e-06
8.0618e-06
7.70774e-06
7.1177e-06
6.22623e-06
4.97356e-06
3.35263e-06
1.58215e-06
3.21364e-07
1.74142e-08
0.00015
0.00015
0.00015
0.00015
0.00015
0.00015
0.00015
0.00015
0.00015
0.00015
0.00015
4.30677e-10
1.11601e-08
7.24464e-08
2.10713e-07
4.37468e-07
7.599e-07
1.18185e-06
1.70255e-06
2.31407e-06
2.99962e-06
3.73381e-06
4.48507e-06
5.21982e-06
5.9074e-06
6.52404e-06
7.05511e-06
7.49538e-06
7.84762e-06
8.12029e-06
8.32501e-06
8.47446e-06
8.58078e-06
8.65463e-06
8.7048e-06
8.73821e-06
8.76003e-06
8.77403e-06
8.78288e-06
8.78836e-06
8.79165e-06
8.79317e-06
8.79143e-06
8.49446e-05
5.3009e-05
3.69302e-05
2.76652e-05
2.18061e-05
1.78466e-05
1.50407e-05
1.29869e-05
1.14559e-05
1.03092e-05
9.45904e-06
8.84529e-06
8.42318e-06
8.15606e-06
8.01186e-06
7.96151e-06
7.97861e-06
8.03926e-06
8.12164e-06
8.20451e-06
8.26487e-06
8.27499e-06
8.19937e-06
7.99298e-06
7.60139e-06
6.96275e-06
6.01089e-06
4.68431e-06
2.98208e-06
1.19619e-06
1.43283e-07
4.16627e-09
0.00015
0.00015
0.00015
0.00015
0.00015
0.00015
0.00015
0.00015
0.00015
0.00015
0.00015
5.26206e-11
2.42719e-09
3.30047e-08
1.28472e-07
3.08607e-07
5.85694e-07
9.67576e-07
1.45626e-06
2.04581e-06
2.72047e-06
3.45513e-06
4.21756e-06
4.97263e-06
5.68728e-06
6.3349e-06
6.89807e-06
7.36916e-06
7.74922e-06
8.04573e-06
8.26999e-06
8.43482e-06
8.55284e-06
8.6353e-06
8.69165e-06
8.72936e-06
8.75411e-06
8.77008e-06
8.7802e-06
8.78651e-06
8.79031e-06
8.79216e-06
8.7906e-06
8.49445e-05
5.30083e-05
3.69284e-05
2.76621e-05
2.18019e-05
1.78414e-05
1.50347e-05
1.29805e-05
1.14494e-05
1.0303e-05
9.45362e-06
8.84102e-06
8.42032e-06
8.15473e-06
8.01197e-06
7.96279e-06
7.98062e-06
8.04142e-06
8.12313e-06
8.20432e-06
8.26167e-06
8.26694e-06
8.18411e-06
7.96757e-06
7.5624e-06
6.9062e-06
5.93114e-06
4.56943e-06
2.8109e-06
1.00388e-06
8.30229e-08
1.80302e-09
0.00015
0.00015
0.00015
0.00015
0.00015
0.00015
0.00015
0.00015
0.00015
0.00015
0.00015
1.78454e-11
1.043e-09
2.1336e-08
9.89043e-08
2.58816e-07
5.16743e-07
8.82534e-07
1.35928e-06
1.94113e-06
2.61199e-06
3.34659e-06
4.11246e-06
4.87407e-06
5.59778e-06
6.25621e-06
6.83106e-06
7.31387e-06
7.70496e-06
8.01131e-06
8.24395e-06
8.41563e-06
8.53902e-06
8.62557e-06
8.68494e-06
8.72481e-06
8.75108e-06
8.76808e-06
8.77889e-06
8.78565e-06
8.78974e-06
8.79177e-06
8.79032e-06
8.49446e-05
5.3009e-05
3.69302e-05
2.76652e-05
2.18061e-05
1.78467e-05
1.50408e-05
1.29873e-05
1.14565e-05
1.03105e-05
9.46111e-06
8.84841e-06
8.42749e-06
8.16157e-06
8.01841e-06
7.96878e-06
7.98612e-06
8.04646e-06
8.12795e-06
8.20959e-06
8.26854e-06
8.27728e-06
8.20069e-06
7.99414e-06
7.60356e-06
6.96723e-06
6.01874e-06
4.69585e-06
2.99453e-06
1.20418e-06
1.4896e-07
4.31753e-09
0.00015
0.00015
0.00015
0.00015
0.00015
0.00015
0.00015
0.00015
0.00015
0.00015
0.00015
4.93845e-11
2.30613e-09
3.20014e-08
1.26591e-07
3.07043e-07
5.85678e-07
9.69418e-07
1.45901e-06
2.04758e-06
2.71897e-06
3.44843e-06
4.20464e-06
4.95362e-06
5.66336e-06
6.30794e-06
6.87016e-06
7.34221e-06
7.7247e-06
8.02452e-06
8.25244e-06
8.42087e-06
8.54213e-06
8.62734e-06
8.6859e-06
8.72531e-06
8.75134e-06
8.76821e-06
8.77897e-06
8.78571e-06
8.78979e-06
8.79182e-06
8.79037e-06
8.49448e-05
5.30111e-05
3.69357e-05
2.76746e-05
2.18192e-05
1.7863e-05
1.50597e-05
1.30079e-05
1.14782e-05
1.03321e-05
9.48192e-06
8.86762e-06
8.44455e-06
8.1762e-06
8.03059e-06
7.97873e-06
7.99427e-06
8.05348e-06
8.13506e-06
8.21882e-06
8.2831e-06
8.30209e-06
8.24283e-06
8.06299e-06
7.71035e-06
7.12425e-06
6.23887e-06
4.9932e-06
3.37689e-06
1.60414e-06
3.41568e-07
1.85139e-08
0.00015
0.00015
0.00015
0.00015
0.00015
0.00015
0.00015
0.00015
0.00015
0.00015
0.00015
4.06798e-10
1.0693e-08
7.05834e-08
2.08403e-07
4.3691e-07
7.62667e-07
1.18762e-06
1.70883e-06
2.31692e-06
2.99483e-06
3.71818e-06
4.45726e-06
5.18066e-06
5.85955e-06
6.47125e-06
7.00136e-06
7.44416e-06
7.80148e-06
8.08069e-06
8.29247e-06
8.44871e-06
8.56108e-06
8.64001e-06
8.69425e-06
8.73077e-06
8.75489e-06
8.77055e-06
8.78054e-06
8.7868e-06
8.79059e-06
8.79245e-06
8.79089e-06
8.49451e-05
5.30149e-05
3.6946e-05
2.76922e-05
2.18437e-05
1.78933e-05
1.50946e-05
1.30459e-05
1.15174e-05
1.03709e-05
9.51848e-06
8.90051e-06
8.47279e-06
8.19935e-06
8.04878e-06
7.99252e-06
8.0046e-06
8.06165e-06
8.14301e-06
8.22954e-06
8.30113e-06
8.33439e-06
8.29965e-06
8.15819e-06
7.86101e-06
7.3495e-06
6.5582e-06
5.42377e-06
3.92075e-06
2.18735e-06
7.23728e-07
7.80288e-08
2.32775e-09
0.00015
0.00015
0.00015
0.00015
0.00015
0.00015
0.00015
0.00015
0.00015
1.24973e-10
4.3048e-09
4.56167e-08
1.60344e-07
3.6136e-07
6.5381e-07
1.03902e-06
1.51472e-06
2.07477e-06
2.70711e-06
3.39306e-06
4.1081e-06
4.82403e-06
5.51245e-06
6.14858e-06
6.71409e-06
7.1985e-06
7.59913e-06
7.91973e-06
8.16849e-06
8.35607e-06
8.49382e-06
8.59251e-06
8.66162e-06
8.70901e-06
8.74086e-06
8.76187e-06
8.7755e-06
8.78419e-06
8.78963e-06
8.79292e-06
8.79447e-06
8.79273e-06
8.49457e-05
5.30215e-05
3.69635e-05
2.77218e-05
2.18846e-05
1.79437e-05
1.5152e-05
1.31077e-05
1.15806e-05
1.04324e-05
9.57561e-06
8.95111e-06
8.51549e-06
8.23371e-06
8.07514e-06
8.01191e-06
8.01847e-06
8.07187e-06
8.15209e-06
8.2409e-06
8.31985e-06
8.36836e-06
8.36081e-06
8.2635e-06
8.0324e-06
7.61282e-06
6.94107e-06
5.95118e-06
4.60083e-06
2.95814e-06
1.3646e-06
3.41619e-07
2.88608e-08
0.00015
0.00015
0.00015
0.00015
0.00015
0.00015
0.00015
0.00015
6.63537e-11
2.98638e-09
3.63606e-08
1.47357e-07
3.43634e-07
6.25302e-07
9.9104e-07
1.43886e-06
1.96441e-06
2.55968e-06
3.21072e-06
3.89742e-06
4.59517e-06
5.27758e-06
5.91988e-06
6.50193e-06
7.01037e-06
7.43908e-06
7.78891e-06
8.06549e-06
8.27789e-06
8.4366e-06
8.55227e-06
8.63462e-06
8.692e-06
8.73116e-06
8.75739e-06
8.77465e-06
8.78581e-06
8.79292e-06
8.79736e-06
8.80002e-06
8.80118e-06
8.79923e-06
8.49468e-05
5.30328e-05
3.69931e-05
2.77711e-05
2.19517e-05
1.80249e-05
1.52429e-05
1.32034e-05
1.16765e-05
1.05242e-05
9.65985e-06
9.0254e-06
8.57858e-06
8.28545e-06
8.11634e-06
8.04406e-06
8.04347e-06
8.09193e-06
8.16987e-06
8.25966e-06
8.34426e-06
8.40591e-06
8.42338e-06
8.3693e-06
8.20641e-06
7.88646e-06
7.35046e-06
6.53246e-06
5.37655e-06
3.89269e-06
2.2769e-06
9.51946e-07
2.27039e-07
2.54177e-08
1.51435e-09
0.00015
0.00015
0.00015
0.00015
0.00015
7.51688e-10
6.58645e-09
5.04408e-08
1.81399e-07
3.99481e-07
6.99901e-07
1.07381e-06
1.51541e-06
2.02123e-06
2.58656e-06
3.20269e-06
3.85512e-06
4.52376e-06
5.18526e-06
5.81611e-06
6.39631e-06
6.91071e-06
7.35113e-06
7.71586e-06
8.00856e-06
8.2366e-06
8.40951e-06
8.53732e-06
8.62957e-06
8.69471e-06
8.73975e-06
8.77031e-06
8.79067e-06
8.80401e-06
8.8126e-06
8.81804e-06
8.82143e-06
8.82344e-06
8.8242e-06
8.82202e-06
8.49487e-05
5.30533e-05
3.7045e-05
2.7855e-05
2.20617e-05
1.81529e-05
1.53806e-05
1.33436e-05
1.18133e-05
1.06533e-05
9.77886e-06
9.13328e-06
8.67551e-06
8.37203e-06
8.19412e-06
8.11461e-06
8.10824e-06
8.15238e-06
8.22785e-06
8.31709e-06
8.40418e-06
8.47389e-06
8.50848e-06
8.48917e-06
8.38651e-06
8.16075e-06
7.76158e-06
7.12819e-06
6.19841e-06
4.94165e-06
3.43865e-06
1.96051e-06
8.67463e-07
2.66737e-07
5.99891e-08
9.4628e-09
1.6437e-09
6.29425e-10
1.38827e-09
6.73203e-09
3.00964e-08
1.16531e-07
3.04408e-07
5.87198e-07
9.484e-07
1.373e-06
1.84365e-06
2.35286e-06
2.89826e-06
3.47726e-06
4.08327e-06
4.70388e-06
5.32159e-06
5.9165e-06
6.46978e-06
6.96642e-06
7.39687e-06
7.75762e-06
8.05075e-06
8.28193e-06
8.45923e-06
8.59173e-06
8.68842e-06
8.75742e-06
8.80564e-06
8.83869e-06
8.86094e-06
8.87565e-06
8.88523e-06
8.89137e-06
8.89524e-06
8.89763e-06
8.89902e-06
8.89939e-06
8.89699e-06
8.49527e-05
5.30934e-05
3.71397e-05
2.79976e-05
2.22358e-05
1.83421e-05
1.55726e-05
1.35311e-05
1.19938e-05
1.08279e-05
9.95008e-06
9.3045e-06
8.84999e-06
8.55183e-06
8.37903e-06
8.30342e-06
8.29923e-06
8.34471e-06
8.42022e-06
8.50785e-06
8.59289e-06
8.66293e-06
8.70431e-06
8.70297e-06
8.63974e-06
8.48631e-06
8.20401e-06
7.74279e-06
7.04426e-06
6.05779e-06
4.78769e-06
3.36198e-06
2.05447e-06
1.08252e-06
5.07998e-07
2.08223e-07
8.05925e-08
4.10362e-08
5.60343e-08
1.35875e-07
3.14231e-07
6.14069e-07
1.03307e-06
1.53375e-06
2.07505e-06
2.62968e-06
3.17747e-06
3.71601e-06
4.25102e-06
4.78845e-06
5.32889e-06
5.86554e-06
6.3858e-06
6.87486e-06
7.31913e-06
7.70935e-06
8.04026e-06
8.31195e-06
8.52837e-06
8.69591e-06
8.82222e-06
8.91513e-06
8.98195e-06
9.029e-06
9.06148e-06
9.08349e-06
9.09816e-06
9.10777e-06
9.11396e-06
9.11788e-06
9.12032e-06
9.12181e-06
9.12262e-06
9.12265e-06
9.12006e-06
8.49613e-05
5.31739e-05
3.73093e-05
2.82228e-05
2.248e-05
1.85835e-05
1.58049e-05
1.37597e-05
1.22307e-05
1.10871e-05
1.02427e-05
9.63931e-06
9.23198e-06
8.98161e-06
8.85167e-06
8.81072e-06
8.83157e-06
8.8939e-06
8.9758e-06
9.06033e-06
9.1351e-06
9.19098e-06
9.21996e-06
9.21287e-06
9.16123e-06
9.04609e-06
8.84202e-06
8.51362e-06
8.0151e-06
7.29576e-06
6.32261e-06
5.12664e-06
3.84901e-06
2.69402e-06
1.81466e-06
1.21762e-06
8.66285e-07
7.1879e-07
7.87751e-07
1.07522e-06
1.56125e-06
2.2046e-06
2.9345e-06
3.67133e-06
4.35382e-06
4.95459e-06
5.47278e-06
5.92669e-06
6.34214e-06
6.74079e-06
7.13337e-06
7.51915e-06
7.88979e-06
8.23422e-06
8.54268e-06
8.80883e-06
9.03033e-06
9.20872e-06
9.34802e-06
9.45376e-06
9.53196e-06
9.58841e-06
9.62828e-06
9.65583e-06
9.67455e-06
9.68701e-06
9.69512e-06
9.70031e-06
9.70356e-06
9.70556e-06
9.70676e-06
9.70745e-06
9.70776e-06
9.70747e-06
9.70477e-06
8.49814e-05
5.3332e-05
3.75733e-05
2.85058e-05
2.27437e-05
1.88329e-05
1.60669e-05
1.40675e-05
1.26217e-05
1.15948e-05
1.08866e-05
1.04267e-05
1.01576e-05
1.00304e-05
1.00032e-05
1.00412e-05
1.01192e-05
1.02144e-05
1.03067e-05
1.03847e-05
1.04416e-05
1.04734e-05
1.04768e-05
1.04492e-05
1.0386e-05
1.02794e-05
1.01159e-05
9.87467e-06
9.52665e-06
9.0344e-06
8.3602e-06
7.49031e-06
6.47135e-06
5.42587e-06
4.50866e-06
3.82022e-06
3.4147e-06
3.32324e-06
3.66797e-06
4.37171e-06
5.31476e-06
6.33861e-06
7.2972e-06
8.08457e-06
8.65625e-06
9.02927e-06
9.25531e-06
9.39759e-06
9.51175e-06
9.63436e-06
9.77995e-06
9.94607e-06
1.01215e-05
1.02934e-05
1.04512e-05
1.05879e-05
1.07011e-05
1.07909e-05
1.08598e-05
1.09108e-05
1.09474e-05
1.09731e-05
1.09907e-05
1.10024e-05
1.10099e-05
1.10145e-05
1.10173e-05
1.10189e-05
1.10197e-05
1.10201e-05
1.10203e-05
1.10203e-05
1.10202e-05
1.10196e-05
1.1017e-05
8.50295e-05
5.35901e-05
3.78407e-05
2.87172e-05
2.2946e-05
1.91027e-05
1.64913e-05
1.47094e-05
1.35263e-05
1.27876e-05
1.23759e-05
1.21973e-05
1.21754e-05
1.22504e-05
1.23771e-05
1.25243e-05
1.26735e-05
1.28017e-05
1.29042e-05
1.29808e-05
1.30325e-05
1.30614e-05
1.30694e-05
1.30583e-05
1.30281e-05
1.29771e-05
1.29008e-05
1.2791e-05
1.26344e-05
1.24115e-05
1.20988e-05
1.16789e-05
1.11629e-05
1.0615e-05
1.01552e-05
9.9207e-06
1.00397e-05
1.07075e-05
1.18431e-05
1.32229e-05
1.45783e-05
1.56434e-05
1.62625e-05
1.64073e-05
1.61561e-05
1.56582e-05
1.50708e-05
1.45167e-05
1.40674e-05
1.37461e-05
1.35426e-05
1.34304e-05
1.33805e-05
1.33684e-05
1.33758e-05
1.3391e-05
1.34073e-05
1.34213e-05
1.34319e-05
1.34391e-05
1.34436e-05
1.34459e-05
1.34465e-05
1.34461e-05
1.34452e-05
1.34441e-05
1.3443e-05
1.34419e-05
1.3441e-05
1.34402e-05
1.34396e-05
1.34391e-05
1.34387e-05
1.34382e-05
1.3436e-05
8.51359e-05
5.37134e-05
3.78191e-05
2.87548e-05
2.32572e-05
1.97428e-05
1.75199e-05
1.61903e-05
1.54885e-05
1.52166e-05
1.5219e-05
1.53762e-05
1.56043e-05
1.58506e-05
1.60872e-05
1.63029e-05
1.64867e-05
1.66435e-05
1.67846e-05
1.69195e-05
1.70575e-05
1.72072e-05
1.73777e-05
1.75783e-05
1.7819e-05
1.811e-05
1.84624e-05
1.88872e-05
1.93945e-05
1.99923e-05
2.06854e-05
2.14795e-05
2.2395e-05
2.34846e-05
2.48465e-05
2.65935e-05
2.87632e-05
3.13324e-05
3.35447e-05
3.49725e-05
3.52892e-05
3.44069e-05
3.25171e-05
2.99982e-05
2.72766e-05
2.4736e-05
2.25865e-05
2.08993e-05
1.96495e-05
1.8762e-05
1.81496e-05
1.77343e-05
1.74546e-05
1.72662e-05
1.71382e-05
1.70501e-05
1.69883e-05
1.69446e-05
1.69129e-05
1.68894e-05
1.68717e-05
1.68584e-05
1.68483e-05
1.68408e-05
1.68353e-05
1.68312e-05
1.68281e-05
1.68259e-05
1.68243e-05
1.68232e-05
1.68224e-05
1.6822e-05
1.68218e-05
1.68217e-05
1.68206e-05
8.55203e-05
5.3168e-05
3.76593e-05
2.91572e-05
2.40671e-05
2.10246e-05
1.93072e-05
1.84708e-05
1.82025e-05
1.82659e-05
1.8491e-05
1.87708e-05
1.90503e-05
1.93091e-05
1.95462e-05
1.97699e-05
1.99908e-05
2.02263e-05
2.04935e-05
2.08105e-05
2.11971e-05
2.16767e-05
2.22784e-05
2.30388e-05
2.40043e-05
2.52333e-05
2.67987e-05
2.87894e-05
3.13099e-05
3.44737e-05
3.83916e-05
4.31508e-05
4.87903e-05
5.52719e-05
6.24347e-05
6.99221e-05
7.6627e-05
8.04797e-05
8.07738e-05
7.72718e-05
7.06161e-05
6.20598e-05
5.30688e-05
4.48171e-05
3.79853e-05
3.27071e-05
2.88281e-05
2.60588e-05
2.41176e-05
2.27701e-05
2.18385e-05
2.11946e-05
2.0749e-05
2.04401e-05
2.02256e-05
2.00764e-05
1.99726e-05
1.99006e-05
1.98505e-05
1.9816e-05
1.97924e-05
1.97764e-05
1.97656e-05
1.97586e-05
1.97541e-05
1.97513e-05
1.97496e-05
1.97488e-05
1.97484e-05
1.97483e-05
1.97485e-05
1.9749e-05
1.97498e-05
1.97509e-05
1.97513e-05
)
;

boundaryField
{
    ibCylinder
    {
        type            immersedBoundaryKqRWallFunction;
        patchType       immersedBoundary;
        setDeadValue    true;
        deadValue       0.00015;
        value           nonuniform List<scalar> 0();
    }
    in
    {
        type            fixedValue;
        value           uniform 0.00015;
    }
    out
    {
        type            inletOutlet;
        inletValue      uniform 0.00015;
        value           nonuniform List<scalar> 
25
(
1.97172e-05
1.6811e-05
1.34566e-05
1.10533e-05
9.7386e-06
9.14301e-06
8.90955e-06
8.82794e-06
8.80181e-06
8.79387e-06
8.79143e-06
8.7906e-06
8.79032e-06
8.79037e-06
8.79089e-06
8.79273e-06
8.79923e-06
8.82202e-06
8.89699e-06
9.12006e-06
9.70477e-06
1.1017e-05
1.3436e-05
1.68206e-05
1.97513e-05
)
;
    }
    top
    {
        type            zeroGradient;
    }
    bottom
    {
        type            zeroGradient;
    }
    frontAndBack
    {
        type            empty;
    }
}


// ************************************************************************* //
