/*--------------------------------*- C++ -*----------------------------------*\
| =========                 |                                                 |
| \\      /  F ield         | OpenFOAM: The Open Source CFD Toolbox           |
|  \\    /   O peration     | Version:  2206                                  |
|   \\  /    A nd           | Website:  www.openfoam.com                      |
|    \\/     M anipulation  |                                                 |
\*---------------------------------------------------------------------------*/
FoamFile
{
    version     2.0;
    format      ascii;
    arch        "LSB;label=32;scalar=64";
    class       volScalarField;
    location    "0.6";
    object      nut;
}
// * * * * * * * * * * * * * * * * * * * * * * * * * * * * * * * * * * * * * //

dimensions      [0 2 -1 0 0 0 0];

internalField   nonuniform List<scalar> 
1875
(
2.91407e-07
2.88057e-07
2.94117e-07
3.06914e-07
3.24714e-07
3.48589e-07
3.79727e-07
4.18324e-07
4.62784e-07
5.0986e-07
5.55717e-07
5.97178e-07
6.3243e-07
6.61045e-07
6.83583e-07
7.01115e-07
7.14871e-07
7.26169e-07
7.36149e-07
7.45775e-07
7.55874e-07
7.67194e-07
7.80447e-07
7.9634e-07
8.15587e-07
8.38885e-07
8.66877e-07
9.00055e-07
9.38605e-07
9.82196e-07
1.02985e-06
1.08013e-06
1.1319e-06
1.18554e-06
1.24313e-06
1.30629e-06
1.36769e-06
1.40624e-06
1.41493e-06
1.39024e-06
1.33495e-06
1.25673e-06
1.16669e-06
1.07609e-06
9.94231e-07
9.25852e-07
8.72226e-07
8.31881e-07
8.02372e-07
7.81124e-07
7.65921e-07
7.55048e-07
7.47256e-07
7.4166e-07
7.37632e-07
7.34731e-07
7.32645e-07
7.3115e-07
7.30081e-07
7.29324e-07
7.28793e-07
7.28424e-07
7.28171e-07
7.28001e-07
7.27888e-07
7.27817e-07
7.27772e-07
7.27747e-07
7.27734e-07
7.27729e-07
7.27732e-07
7.27743e-07
7.27771e-07
7.27832e-07
7.27933e-07
2.90329e-07
2.83181e-07
2.79904e-07
2.80939e-07
2.86867e-07
2.97498e-07
3.1379e-07
3.36498e-07
3.65645e-07
4.00169e-07
4.3794e-07
4.76274e-07
5.12622e-07
5.45119e-07
5.7279e-07
5.95475e-07
6.13286e-07
6.27001e-07
6.37594e-07
6.45942e-07
6.52794e-07
6.58771e-07
6.64361e-07
6.69933e-07
6.75704e-07
6.81717e-07
6.8777e-07
6.93316e-07
6.97301e-07
6.97991e-07
6.92989e-07
6.79981e-07
6.58814e-07
6.34177e-07
6.15897e-07
6.14e-07
6.34278e-07
6.74298e-07
7.14264e-07
7.47419e-07
7.68698e-07
7.75914e-07
7.70208e-07
7.55117e-07
7.3516e-07
7.14969e-07
6.97479e-07
6.84036e-07
6.74663e-07
6.68587e-07
6.64805e-07
6.62437e-07
6.6087e-07
6.59732e-07
6.58825e-07
6.58053e-07
6.57381e-07
6.56802e-07
6.56304e-07
6.55879e-07
6.55524e-07
6.55235e-07
6.55006e-07
6.54828e-07
6.54692e-07
6.5459e-07
6.54514e-07
6.54458e-07
6.54419e-07
6.54391e-07
6.54373e-07
6.54365e-07
6.54375e-07
6.54435e-07
6.54666e-07
2.9004e-07
2.82063e-07
2.76506e-07
2.73169e-07
2.72228e-07
2.74008e-07
2.79098e-07
2.87958e-07
3.01115e-07
3.18781e-07
3.40617e-07
3.65713e-07
3.92699e-07
4.19991e-07
4.46087e-07
4.69817e-07
4.90497e-07
5.07463e-07
5.20831e-07
5.30967e-07
5.38327e-07
5.43367e-07
5.46456e-07
5.47828e-07
5.47471e-07
5.45056e-07
5.39775e-07
5.30136e-07
5.1368e-07
4.86812e-07
4.45422e-07
3.87719e-07
3.19239e-07
2.5361e-07
2.04349e-07
1.75492e-07
1.67109e-07
1.79673e-07
2.04893e-07
2.38958e-07
2.78014e-07
3.17351e-07
3.53265e-07
3.8383e-07
4.08953e-07
4.29967e-07
4.48576e-07
4.6606e-07
4.82942e-07
4.99031e-07
5.13745e-07
5.26502e-07
5.36973e-07
5.45143e-07
5.51232e-07
5.55582e-07
5.58571e-07
5.60549e-07
5.61806e-07
5.62568e-07
5.63008e-07
5.63243e-07
5.63347e-07
5.63376e-07
5.63368e-07
5.63343e-07
5.63312e-07
5.63282e-07
5.63255e-07
5.63233e-07
5.63216e-07
5.63206e-07
5.63206e-07
5.63239e-07
5.63398e-07
2.89952e-07
2.81695e-07
2.75513e-07
2.70925e-07
2.67777e-07
2.66114e-07
2.66158e-07
2.68255e-07
2.72882e-07
2.80473e-07
2.91206e-07
3.05082e-07
3.21759e-07
3.40546e-07
3.60482e-07
3.80505e-07
3.99685e-07
4.17135e-07
4.32128e-07
4.4436e-07
4.53784e-07
4.60502e-07
4.6463e-07
4.6617e-07
4.64838e-07
4.59852e-07
4.49642e-07
4.31517e-07
4.01372e-07
3.54135e-07
2.86953e-07
2.06502e-07
1.31724e-07
7.8767e-08
4.88699e-08
3.33711e-08
2.69045e-08
2.69397e-08
3.26042e-08
4.37259e-08
6.08681e-08
8.37113e-08
1.11085e-07
1.41225e-07
1.72446e-07
2.03813e-07
2.35149e-07
2.66632e-07
2.98321e-07
3.29811e-07
3.60166e-07
3.88185e-07
4.12801e-07
4.33384e-07
4.4982e-07
4.62413e-07
4.71714e-07
4.78371e-07
4.82999e-07
4.86133e-07
4.88204e-07
4.89541e-07
4.90386e-07
4.90907e-07
4.91218e-07
4.91398e-07
4.91498e-07
4.91551e-07
4.91578e-07
4.91589e-07
4.91592e-07
4.91593e-07
4.91596e-07
4.91616e-07
4.91713e-07
2.89926e-07
2.81555e-07
2.75139e-07
2.70151e-07
2.66295e-07
2.63468e-07
2.61722e-07
2.61255e-07
2.62372e-07
2.65443e-07
2.70811e-07
2.78758e-07
2.89374e-07
3.02469e-07
3.17534e-07
3.33847e-07
3.50558e-07
3.6691e-07
3.82023e-07
3.95245e-07
4.06154e-07
4.145e-07
4.2006e-07
4.22438e-07
4.20924e-07
4.13945e-07
3.98844e-07
3.71461e-07
3.26301e-07
2.59168e-07
1.75328e-07
9.64579e-08
4.44587e-08
1.8926e-08
8.59198e-09
4.16558e-09
2.45067e-09
2.07538e-09
2.65593e-09
4.5176e-09
8.43731e-09
1.53675e-08
2.61048e-08
4.09612e-08
5.97268e-08
8.19706e-08
1.07319e-07
1.35633e-07
1.66894e-07
2.00847e-07
2.36668e-07
2.72889e-07
3.07676e-07
3.39294e-07
3.66527e-07
3.88843e-07
4.06332e-07
4.19521e-07
4.29138e-07
4.35948e-07
4.40648e-07
4.43818e-07
4.45913e-07
4.47271e-07
4.48136e-07
4.48679e-07
4.49012e-07
4.49214e-07
4.49334e-07
4.49405e-07
4.49446e-07
4.4947e-07
4.49485e-07
4.49502e-07
4.49559e-07
2.89917e-07
2.81503e-07
2.7498e-07
2.69818e-07
2.65703e-07
2.62479e-07
2.6013e-07
2.58774e-07
2.58644e-07
2.60068e-07
2.6341e-07
2.68993e-07
2.77024e-07
2.87489e-07
3.00115e-07
3.14383e-07
3.29582e-07
3.44961e-07
3.59735e-07
3.73166e-07
3.84656e-07
3.93705e-07
3.99727e-07
4.01894e-07
3.98768e-07
3.87873e-07
3.65304e-07
3.25625e-07
2.63457e-07
1.80245e-07
9.54276e-08
3.74886e-08
1.17561e-08
3.18985e-09
8.97974e-10
2.15267e-10
5.4586e-11
2.43432e-11
4.29924e-11
1.69861e-10
6.58011e-10
2.02145e-09
5.05563e-09
1.05344e-08
1.90719e-08
3.10987e-08
4.68566e-08
6.66399e-08
9.08185e-08
1.19638e-07
1.52881e-07
1.89574e-07
2.27965e-07
2.65834e-07
3.01013e-07
3.31874e-07
3.57542e-07
3.77915e-07
3.93439e-07
4.04858e-07
4.13007e-07
4.18669e-07
4.22514e-07
4.25071e-07
4.26741e-07
4.27813e-07
4.28491e-07
4.28914e-07
4.29174e-07
4.29332e-07
4.29427e-07
4.29484e-07
4.29518e-07
4.29542e-07
4.29576e-07
2.89914e-07
2.81482e-07
2.7491e-07
2.69662e-07
2.65425e-07
2.62041e-07
2.59484e-07
2.57852e-07
2.57361e-07
2.58316e-07
2.61072e-07
2.65953e-07
2.73181e-07
2.82785e-07
2.94574e-07
3.08095e-07
3.22693e-07
3.37611e-07
3.52094e-07
3.65396e-07
3.76826e-07
3.85683e-07
3.91059e-07
3.91662e-07
3.85275e-07
3.68416e-07
3.36098e-07
2.82451e-07
2.04891e-07
1.15393e-07
4.50489e-08
1.17788e-08
2.18718e-09
2.63973e-10
2.80643e-11
1.59178e-12
1.01956e-13
2.4292e-14
9.11916e-14
1.24469e-12
1.62624e-11
1.51843e-10
7.8835e-10
2.53969e-09
6.09254e-09
1.21311e-08
2.12436e-08
3.40553e-08
5.12727e-08
7.3583e-08
1.01383e-07
1.34435e-07
1.71629e-07
2.1102e-07
2.50186e-07
2.86769e-07
3.18975e-07
3.45844e-07
3.6722e-07
3.83533e-07
3.95544e-07
4.04119e-07
4.10078e-07
4.14125e-07
4.16815e-07
4.18571e-07
4.19699e-07
4.20411e-07
4.20856e-07
4.2113e-07
4.21296e-07
4.21397e-07
4.21457e-07
4.21494e-07
4.21521e-07
2.89913e-07
2.81473e-07
2.74877e-07
2.69587e-07
2.65289e-07
2.61829e-07
2.5919e-07
2.57481e-07
2.56925e-07
2.57832e-07
2.60552e-07
2.65403e-07
2.7259e-07
2.82132e-07
2.93817e-07
3.07194e-07
3.21621e-07
3.36345e-07
3.50599e-07
3.63623e-07
3.74644e-07
3.82778e-07
3.86803e-07
3.84848e-07
3.73978e-07
3.4987e-07
3.06891e-07
2.39993e-07
1.52254e-07
6.77194e-08
1.83829e-08
2.81669e-09
2.02319e-10
4.79989e-12
3.03366e-14
1e-06
1e-06
1e-06
1e-06
1e-06
2.00824e-14
1.48704e-12
5.00126e-11
4.49466e-10
1.79782e-09
4.79921e-09
1.01422e-08
1.85519e-08
3.08552e-08
4.79381e-08
7.0564e-08
9.90572e-08
1.32987e-07
1.71014e-07
2.11005e-07
2.50451e-07
2.86997e-07
3.18936e-07
3.45405e-07
3.66331e-07
3.8221e-07
3.93841e-07
4.02104e-07
4.07821e-07
4.11685e-07
4.14243e-07
4.15906e-07
4.16969e-07
4.17638e-07
4.18053e-07
4.18308e-07
4.18463e-07
4.18556e-07
4.18611e-07
4.1864e-07
2.89912e-07
2.81468e-07
2.7486e-07
2.69548e-07
2.65218e-07
2.61722e-07
2.5905e-07
2.57326e-07
2.5679e-07
2.57765e-07
2.60608e-07
2.65628e-07
2.73012e-07
2.82747e-07
2.94588e-07
3.08055e-07
3.22487e-07
3.3712e-07
3.51169e-07
3.63841e-07
3.74269e-07
3.81377e-07
3.83607e-07
3.78583e-07
3.62743e-07
3.31152e-07
2.78079e-07
2.00499e-07
1.08991e-07
3.69017e-08
6.43483e-09
4.20495e-10
5.23866e-12
1e-06
1e-06
1e-06
1e-06
1e-06
1e-06
1e-06
1e-06
3.30968e-16
6.95641e-13
4.44222e-11
4.59175e-10
1.89848e-09
5.08555e-09
1.07731e-08
1.98062e-08
3.31205e-08
5.16376e-08
7.60108e-08
1.06318e-07
1.4181e-07
1.80849e-07
2.21119e-07
2.60094e-07
2.95575e-07
3.26086e-07
3.51014e-07
3.70474e-07
3.85076e-07
3.95664e-07
4.03117e-07
4.08231e-07
4.11661e-07
4.13915e-07
4.1537e-07
4.16294e-07
4.16872e-07
4.17229e-07
4.17446e-07
4.17577e-07
4.17654e-07
4.17693e-07
2.89912e-07
2.81466e-07
2.74851e-07
2.69526e-07
2.65179e-07
2.61665e-07
2.5898e-07
2.5726e-07
2.56759e-07
2.57816e-07
2.60794e-07
2.66e-07
2.73604e-07
2.83566e-07
2.95604e-07
3.09207e-07
3.23688e-07
3.38265e-07
3.52127e-07
3.6443e-07
3.74211e-07
3.80201e-07
3.80537e-07
3.7242e-07
3.51809e-07
3.13411e-07
2.51813e-07
1.66711e-07
7.65668e-08
1.91038e-08
1.89178e-09
3.46038e-11
4.10028e-14
1e-06
1e-06
1e-06
1e-06
1e-06
1e-06
1e-06
1e-06
1e-06
3.79806e-15
2.53274e-12
1.00043e-10
7.42657e-10
2.64539e-09
6.58021e-09
1.33863e-08
2.39986e-08
3.93938e-08
6.04047e-08
8.74492e-08
1.20246e-07
1.57634e-07
1.97623e-07
2.37735e-07
2.75523e-07
3.09064e-07
3.37252e-07
3.5981e-07
3.77103e-07
3.89873e-07
3.99004e-07
4.05352e-07
4.09658e-07
4.12517e-07
4.14378e-07
4.15568e-07
4.16318e-07
4.16783e-07
4.17068e-07
4.1724e-07
4.17342e-07
4.17393e-07
2.89912e-07
2.81464e-07
2.74846e-07
2.69514e-07
2.65158e-07
2.61633e-07
2.58944e-07
2.5723e-07
2.56759e-07
2.57879e-07
2.60961e-07
2.66312e-07
2.74088e-07
2.84229e-07
2.96428e-07
3.10146e-07
3.24673e-07
3.39208e-07
3.52908e-07
3.64883e-07
3.74074e-07
3.79051e-07
3.77706e-07
3.66924e-07
3.42338e-07
2.98472e-07
2.30351e-07
1.40374e-07
5.4212e-08
9.74136e-09
4.65368e-10
2.83845e-12
1e-06
1e-06
1e-06
1e-06
1e-06
1e-06
1e-06
1e-06
1e-06
1e-06
1e-06
8.61587e-14
1.36629e-11
2.56234e-10
1.36679e-09
4.14187e-09
9.40157e-09
1.80618e-08
3.11274e-08
4.95487e-08
7.39736e-08
1.04452e-07
1.40193e-07
1.79512e-07
2.20059e-07
2.59283e-07
2.9497e-07
3.25641e-07
3.50675e-07
3.70198e-07
3.8483e-07
3.95425e-07
4.02871e-07
4.0797e-07
4.11382e-07
4.1362e-07
4.15061e-07
4.15973e-07
4.16541e-07
4.16891e-07
4.17103e-07
4.17229e-07
4.17293e-07
2.89912e-07
2.81463e-07
2.74843e-07
2.69508e-07
2.65147e-07
2.61617e-07
2.58925e-07
2.57217e-07
2.56765e-07
2.57924e-07
2.61071e-07
2.66511e-07
2.74397e-07
2.84654e-07
2.96956e-07
3.10749e-07
3.25307e-07
3.3981e-07
3.53396e-07
3.65133e-07
3.73898e-07
3.7815e-07
3.75623e-07
3.63005e-07
3.35727e-07
2.88188e-07
2.15606e-07
1.22276e-07
4.00959e-08
5.22587e-09
1.10479e-10
2.32581e-13
1e-06
1e-06
1e-06
1e-06
1e-06
1e-06
1e-06
1e-06
1e-06
1e-06
1e-06
4.07363e-15
1.72105e-12
8.95104e-11
7.3748e-10
2.74572e-09
6.95637e-09
1.42901e-08
2.57811e-08
4.24607e-08
6.51174e-08
9.40017e-08
1.28553e-07
1.67291e-07
2.07972e-07
2.48012e-07
2.85037e-07
3.17332e-07
3.44045e-07
3.65122e-07
3.81082e-07
3.92742e-07
4.01001e-07
4.06695e-07
4.1053e-07
4.13058e-07
4.14695e-07
4.15735e-07
4.16387e-07
4.16789e-07
4.17034e-07
4.17179e-07
4.17255e-07
2.89912e-07
2.81463e-07
2.74842e-07
2.69506e-07
2.65143e-07
2.61613e-07
2.5892e-07
2.57215e-07
2.56771e-07
2.57948e-07
2.61124e-07
2.66605e-07
2.7454e-07
2.84849e-07
2.97199e-07
3.11025e-07
3.25594e-07
3.40082e-07
3.53615e-07
3.6525e-07
3.73841e-07
3.77811e-07
3.74842e-07
3.6155e-07
3.33279e-07
2.84298e-07
2.09542e-07
1.1358e-07
3.30694e-08
3.46145e-09
4.02836e-11
5.70054e-14
1e-06
1e-06
1e-06
1e-06
1e-06
1e-06
1e-06
1e-06
1e-06
1e-06
1e-06
8.80233e-16
5.66473e-13
5.05312e-11
5.31933e-10
2.22513e-09
6.00067e-09
1.28004e-08
2.36805e-08
3.96991e-08
6.16836e-08
8.99445e-08
1.23997e-07
1.62436e-07
2.0307e-07
2.43327e-07
2.80792e-07
3.13677e-07
3.41041e-07
3.62755e-07
3.79284e-07
3.9142e-07
4.00057e-07
4.06037e-07
4.10081e-07
4.12758e-07
4.14497e-07
4.15607e-07
4.16304e-07
4.16736e-07
4.17e-07
4.17157e-07
4.17239e-07
2.89912e-07
2.81463e-07
2.74843e-07
2.69508e-07
2.65147e-07
2.61618e-07
2.58928e-07
2.57223e-07
2.56779e-07
2.57954e-07
2.61124e-07
2.66597e-07
2.74523e-07
2.84822e-07
2.97162e-07
3.1098e-07
3.25544e-07
3.40034e-07
3.53585e-07
3.65275e-07
3.73989e-07
3.78196e-07
3.75647e-07
3.63041e-07
3.35805e-07
2.88307e-07
2.15722e-07
1.22254e-07
3.98921e-08
5.2313e-09
1.14808e-10
2.41025e-13
1e-06
1e-06
1e-06
1e-06
1e-06
1e-06
1e-06
1e-06
1e-06
1e-06
1e-06
3.82311e-15
1.63503e-12
8.64783e-11
7.23592e-10
2.72328e-09
6.94447e-09
1.43076e-08
2.5823e-08
4.24822e-08
6.5032e-08
9.36971e-08
1.27923e-07
1.66271e-07
2.0657e-07
2.46313e-07
2.83179e-07
3.15468e-07
3.42307e-07
3.63601e-07
3.79818e-07
3.91739e-07
4.00235e-07
4.0613e-07
4.10125e-07
4.12775e-07
4.14501e-07
4.15606e-07
4.16302e-07
4.16734e-07
4.16998e-07
4.17157e-07
4.1724e-07
2.89912e-07
2.81464e-07
2.74846e-07
2.69514e-07
2.65158e-07
2.61635e-07
2.58948e-07
2.57242e-07
2.56787e-07
2.57936e-07
2.61064e-07
2.66477e-07
2.74328e-07
2.8455e-07
2.96819e-07
3.10586e-07
3.25128e-07
3.39637e-07
3.53275e-07
3.6516e-07
3.74251e-07
3.79137e-07
3.77738e-07
3.66965e-07
3.42445e-07
2.98638e-07
2.30484e-07
1.40371e-07
5.40163e-08
9.73348e-09
4.94739e-10
3.01769e-12
1e-06
1e-06
1e-06
1e-06
1e-06
1e-06
1e-06
1e-06
1e-06
1e-06
1e-06
8.13816e-14
1.30884e-11
2.48246e-10
1.34351e-09
4.11978e-09
9.41945e-09
1.81453e-08
3.12483e-08
4.95998e-08
7.37719e-08
1.03776e-07
1.38849e-07
1.77403e-07
2.17233e-07
2.5593e-07
2.91368e-07
3.22082e-07
3.47399e-07
3.67359e-07
3.82491e-07
3.9358e-07
4.01469e-07
4.06939e-07
4.10645e-07
4.13105e-07
4.14709e-07
4.15736e-07
4.16385e-07
4.16788e-07
4.17036e-07
4.17184e-07
4.17262e-07
2.89912e-07
2.81466e-07
2.74851e-07
2.69526e-07
2.6518e-07
2.61667e-07
2.58987e-07
2.57278e-07
2.568e-07
2.57899e-07
2.60942e-07
2.66237e-07
2.73948e-07
2.84022e-07
2.9616e-07
3.09831e-07
3.24333e-07
3.38876e-07
3.5265e-07
3.64827e-07
3.74464e-07
3.80319e-07
3.80567e-07
3.72447e-07
3.51923e-07
3.13625e-07
2.51982e-07
1.66654e-07
7.63067e-08
1.90533e-08
1.96973e-09
3.64553e-11
4.33625e-14
1e-06
1e-06
1e-06
1e-06
1e-06
1e-06
1e-06
1e-06
1e-06
3.60928e-15
2.43072e-12
9.73211e-11
7.296e-10
2.63018e-09
6.59997e-09
1.34852e-08
2.41816e-08
3.95792e-08
6.03998e-08
8.69678e-08
1.18976e-07
1.55336e-07
1.94229e-07
2.33391e-07
2.70554e-07
3.03886e-07
3.32264e-07
3.55312e-07
3.73268e-07
3.86755e-07
3.96569e-07
4.03515e-07
4.08313e-07
4.11556e-07
4.13706e-07
4.15107e-07
4.16004e-07
4.16571e-07
4.16924e-07
4.1714e-07
4.17271e-07
4.17338e-07
2.89912e-07
2.81468e-07
2.7486e-07
2.69548e-07
2.65219e-07
2.61724e-07
2.59059e-07
2.5735e-07
2.56844e-07
2.57872e-07
2.60796e-07
2.65927e-07
2.73442e-07
2.83314e-07
2.95274e-07
3.08821e-07
3.23273e-07
3.37859e-07
3.51797e-07
3.6431e-07
3.74556e-07
3.8149e-07
3.836e-07
3.78556e-07
3.62822e-07
3.31403e-07
2.78379e-07
2.00572e-07
1.08796e-07
3.68972e-08
6.65552e-09
4.52887e-10
5.6473e-12
1e-06
1e-06
1e-06
1e-06
1e-06
1e-06
1e-06
1e-06
3.18198e-16
6.72162e-13
4.31093e-11
4.494e-10
1.87393e-09
5.06717e-09
1.08004e-08
1.99011e-08
3.32346e-08
5.16034e-08
7.55315e-08
1.05017e-07
1.39338e-07
1.77013e-07
2.15976e-07
2.53958e-07
2.88933e-07
3.19465e-07
3.44859e-07
3.6508e-07
3.8058e-07
3.92071e-07
4.00346e-07
4.06157e-07
4.10146e-07
4.1283e-07
4.14604e-07
4.15757e-07
4.16494e-07
4.1696e-07
4.17249e-07
4.17427e-07
4.17534e-07
4.17589e-07
2.89913e-07
2.81473e-07
2.74877e-07
2.69587e-07
2.65289e-07
2.61832e-07
2.59202e-07
2.57511e-07
2.5699e-07
2.5796e-07
2.60774e-07
2.65749e-07
2.73081e-07
2.82769e-07
2.94576e-07
3.08025e-07
3.22454e-07
3.37105e-07
3.51218e-07
3.64052e-07
3.7486e-07
3.82792e-07
3.8667e-07
3.84677e-07
3.73924e-07
3.50071e-07
3.0733e-07
2.4041e-07
1.52431e-07
6.79195e-08
1.87389e-08
2.9571e-09
2.1409e-10
5.04256e-12
3.16579e-14
1e-06
1e-06
1e-06
1e-06
1e-06
1.98108e-14
1.45628e-12
4.87627e-11
4.37863e-10
1.74921e-09
4.69217e-09
9.97548e-09
1.83305e-08
3.05453e-08
4.74062e-08
6.95383e-08
9.7152e-08
1.29802e-07
1.66281e-07
2.04715e-07
2.42902e-07
2.78723e-07
3.10561e-07
3.37491e-07
3.59282e-07
3.76236e-07
3.88985e-07
3.98293e-07
4.04913e-07
4.09515e-07
4.1265e-07
4.14746e-07
4.16124e-07
4.17016e-07
4.17585e-07
4.17944e-07
4.18167e-07
4.18304e-07
4.18386e-07
4.18427e-07
2.89914e-07
2.81482e-07
2.7491e-07
2.69663e-07
2.65426e-07
2.62045e-07
2.59497e-07
2.57887e-07
2.57438e-07
2.58463e-07
2.6132e-07
2.66329e-07
2.73699e-07
2.83435e-07
2.95316e-07
3.08867e-07
3.23418e-07
3.38212e-07
3.52509e-07
3.65585e-07
3.76777e-07
3.85418e-07
3.90637e-07
3.91193e-07
3.84926e-07
3.68384e-07
3.36505e-07
2.83201e-07
2.05716e-07
1.16199e-07
4.58142e-08
1.21755e-08
2.29725e-09
2.78684e-10
2.94633e-11
1.65061e-12
1.0577e-13
2.51659e-14
9.34068e-14
1.25711e-12
1.62204e-11
1.4969e-10
7.70145e-10
2.4554e-09
5.86625e-09
1.1677e-08
2.04879e-08
3.29229e-08
4.96364e-08
7.12098e-08
9.79301e-08
1.29531e-07
1.65019e-07
2.02712e-07
2.40511e-07
2.76325e-07
3.0847e-07
3.35923e-07
3.58352e-07
3.75969e-07
3.89339e-07
3.99188e-07
4.06257e-07
4.11216e-07
4.14623e-07
4.16922e-07
4.18448e-07
4.19445e-07
4.20087e-07
4.20495e-07
4.20751e-07
4.2091e-07
4.21007e-07
4.21066e-07
4.21095e-07
2.89917e-07
2.81503e-07
2.7498e-07
2.69818e-07
2.65704e-07
2.62484e-07
2.60147e-07
2.58818e-07
2.58737e-07
2.60239e-07
2.63686e-07
2.69391e-07
2.77537e-07
2.88084e-07
3.0073e-07
3.14937e-07
3.29993e-07
3.4516e-07
3.59681e-07
3.72844e-07
3.84082e-07
3.92922e-07
3.98805e-07
4.00938e-07
3.97937e-07
3.8738e-07
3.65374e-07
3.26382e-07
2.64817e-07
1.81966e-07
9.71074e-08
3.85637e-08
1.22243e-08
3.35387e-09
9.50012e-10
2.26106e-10
5.70171e-11
2.53285e-11
4.43221e-11
1.72544e-10
6.57931e-10
1.98947e-09
4.88469e-09
1.00516e-08
1.80573e-08
2.93373e-08
4.41783e-08
6.28989e-08
8.58401e-08
1.13193e-07
1.44738e-07
1.79623e-07
2.16353e-07
2.53019e-07
2.87688e-07
3.18809e-07
3.45408e-07
3.67175e-07
3.84316e-07
3.97367e-07
4.0702e-07
4.13978e-07
4.18883e-07
4.22271e-07
4.24571e-07
4.26105e-07
4.27114e-07
4.27768e-07
4.28185e-07
4.28449e-07
4.28613e-07
4.28715e-07
4.28777e-07
4.28815e-07
4.28837e-07
2.89926e-07
2.81555e-07
2.75139e-07
2.70151e-07
2.66296e-07
2.63475e-07
2.61746e-07
2.61314e-07
2.62494e-07
2.65655e-07
2.71131e-07
2.79179e-07
2.89856e-07
3.0294e-07
3.17901e-07
3.34011e-07
3.50443e-07
3.66474e-07
3.81266e-07
3.94198e-07
4.04872e-07
4.13055e-07
4.18531e-07
4.2092e-07
4.19544e-07
4.12887e-07
3.98352e-07
3.71802e-07
3.27668e-07
2.61555e-07
1.78291e-07
9.89814e-08
4.59873e-08
1.97325e-08
9.03002e-09
4.39168e-09
2.58233e-09
2.1786e-09
2.74551e-09
4.57099e-09
8.34527e-09
1.48857e-08
2.48406e-08
3.84565e-08
5.55857e-08
7.5952e-08
9.93467e-08
1.25728e-07
1.5511e-07
1.87272e-07
2.21511e-07
2.56567e-07
2.90828e-07
3.22691e-07
3.50911e-07
3.7479e-07
3.94177e-07
4.09356e-07
4.2087e-07
4.29364e-07
4.35479e-07
4.39787e-07
4.42763e-07
4.44784e-07
4.46134e-07
4.47022e-07
4.47596e-07
4.47963e-07
4.48194e-07
4.48337e-07
4.48425e-07
4.48478e-07
4.48511e-07
4.48534e-07
4.4856e-07
2.89952e-07
2.81695e-07
2.75513e-07
2.70925e-07
2.67778e-07
2.66125e-07
2.66194e-07
2.68344e-07
2.73057e-07
2.80756e-07
2.91592e-07
3.05522e-07
3.22163e-07
3.40797e-07
3.60464e-07
3.80132e-07
3.98921e-07
4.16004e-07
4.30688e-07
4.42695e-07
4.51983e-07
4.58645e-07
4.62784e-07
4.64397e-07
4.63213e-07
4.58495e-07
4.48745e-07
4.3136e-07
4.02299e-07
3.56473e-07
2.90743e-07
2.10971e-07
1.35586e-07
8.15249e-08
5.08051e-08
3.47398e-08
2.79084e-08
2.77069e-08
3.30332e-08
4.34896e-08
5.93346e-08
8.00802e-08
1.04614e-07
1.31471e-07
1.5939e-07
1.8781e-07
2.1676e-07
2.46481e-07
2.77035e-07
3.08037e-07
3.38601e-07
3.67552e-07
3.93764e-07
4.16448e-07
4.35264e-07
4.50285e-07
4.61879e-07
4.7057e-07
4.76916e-07
4.81441e-07
4.84602e-07
4.86766e-07
4.88224e-07
4.89188e-07
4.89811e-07
4.90208e-07
4.90455e-07
4.90607e-07
4.90698e-07
4.90751e-07
4.90781e-07
4.90799e-07
4.90811e-07
4.90829e-07
4.9088e-07
2.9004e-07
2.82063e-07
2.76506e-07
2.73169e-07
2.7223e-07
2.74025e-07
2.79156e-07
2.88095e-07
3.01362e-07
3.19136e-07
3.41026e-07
3.66068e-07
3.92866e-07
4.19851e-07
4.45573e-07
4.68928e-07
4.89293e-07
5.0604e-07
5.19296e-07
5.29414e-07
5.36825e-07
5.41957e-07
5.45156e-07
5.46643e-07
5.46418e-07
5.44184e-07
5.39202e-07
5.30073e-07
5.14457e-07
4.88873e-07
4.49224e-07
3.93342e-07
3.25901e-07
2.6007e-07
2.09879e-07
1.79827e-07
1.70077e-07
1.80958e-07
2.03718e-07
2.34179e-07
2.68496e-07
3.02448e-07
3.33102e-07
3.59265e-07
3.81317e-07
4.0073e-07
4.19089e-07
4.37449e-07
4.56098e-07
4.7462e-07
4.92216e-07
5.0808e-07
5.2167e-07
5.32786e-07
5.4152e-07
5.48141e-07
5.53008e-07
5.56488e-07
5.58911e-07
5.60556e-07
5.6165e-07
5.62357e-07
5.62796e-07
5.63059e-07
5.6321e-07
5.63292e-07
5.63332e-07
5.63348e-07
5.6335e-07
5.63347e-07
5.63342e-07
5.6334e-07
5.63347e-07
5.6338e-07
5.63497e-07
2.90329e-07
2.8318e-07
2.79903e-07
2.80939e-07
2.86874e-07
2.9753e-07
3.13878e-07
3.36671e-07
3.65897e-07
4.00434e-07
4.38107e-07
4.76229e-07
5.12298e-07
5.44523e-07
5.71995e-07
5.94594e-07
6.12432e-07
6.26271e-07
6.37052e-07
6.45617e-07
6.52686e-07
6.58856e-07
6.64608e-07
6.7031e-07
6.76201e-07
6.82363e-07
6.88658e-07
6.9463e-07
6.99339e-07
7.01182e-07
6.97872e-07
6.87044e-07
6.68111e-07
6.4496e-07
6.26755e-07
6.2321e-07
6.3996e-07
6.74828e-07
7.08017e-07
7.33537e-07
7.47243e-07
7.47991e-07
7.37768e-07
7.20514e-07
7.00674e-07
6.82436e-07
6.68162e-07
6.58636e-07
6.5341e-07
6.51368e-07
6.51282e-07
6.52151e-07
6.53316e-07
6.54414e-07
6.55288e-07
6.559e-07
6.56281e-07
6.56487e-07
6.56562e-07
6.56548e-07
6.56482e-07
6.56393e-07
6.56299e-07
6.56211e-07
6.56136e-07
6.56071e-07
6.56019e-07
6.55979e-07
6.55948e-07
6.55926e-07
6.55914e-07
6.55914e-07
6.55941e-07
6.56029e-07
6.56272e-07
2.91407e-07
2.88058e-07
2.9412e-07
3.06925e-07
3.24751e-07
3.48672e-07
3.79858e-07
4.18458e-07
4.62827e-07
5.09705e-07
5.55304e-07
5.96528e-07
6.31641e-07
6.60261e-07
6.82946e-07
7.00734e-07
7.14814e-07
7.26463e-07
7.36783e-07
7.46717e-07
7.57083e-07
7.68624e-07
7.82061e-07
7.98127e-07
8.17572e-07
8.41162e-07
8.69636e-07
9.03619e-07
9.43461e-07
9.89016e-07
1.03945e-06
1.09332e-06
1.14913e-06
1.20634e-06
1.26582e-06
1.32812e-06
1.38534e-06
1.41663e-06
1.41639e-06
1.3824e-06
1.31875e-06
1.23424e-06
1.14064e-06
1.04927e-06
9.68926e-07
9.03567e-07
8.53675e-07
8.17167e-07
7.91213e-07
7.73046e-07
7.60392e-07
7.51559e-07
7.45356e-07
7.40969e-07
7.37845e-07
7.35607e-07
7.34e-07
7.32844e-07
7.32011e-07
7.31417e-07
7.30995e-07
7.30698e-07
7.30493e-07
7.30352e-07
7.30259e-07
7.30199e-07
7.30162e-07
7.3014e-07
7.3013e-07
7.30128e-07
7.30137e-07
7.30165e-07
7.30238e-07
7.3042e-07
7.30834e-07
)
;

boundaryField
{
    ibCylinder
    {
        type            immersedBoundaryNutWallFunction;
        patchType       immersedBoundary;
        blending        stepwise;
        value           nonuniform List<scalar> 0();
    }
    in
    {
        type            zeroGradient;
    }
    out
    {
        type            zeroGradient;
    }
    top
    {
        type            zeroGradient;
    }
    bottom
    {
        type            zeroGradient;
    }
    frontAndBack
    {
        type            empty;
    }
}


// ************************************************************************* //
