/*--------------------------------*- C++ -*----------------------------------*\
| =========                 |                                                 |
| \\      /  F ield         | OpenFOAM: The Open Source CFD Toolbox           |
|  \\    /   O peration     | Version:  2206                                  |
|   \\  /    A nd           | Website:  www.openfoam.com                      |
|    \\/     M anipulation  |                                                 |
\*---------------------------------------------------------------------------*/
FoamFile
{
    version     2.0;
    format      ascii;
    arch        "LSB;label=32;scalar=64";
    class       volScalarField;
    location    "0.6";
    object      omega;
}
// * * * * * * * * * * * * * * * * * * * * * * * * * * * * * * * * * * * * * //

dimensions      [0 0 -1 0 0 0 0];

internalField   nonuniform List<scalar> 
1875
(
293.474
184.574
128.041
94.9974
74.1088
60.2972
50.8236
44.133
39.318
35.8217
33.2819
31.4496
30.1448
29.2338
28.6154
28.2151
27.9757
27.8587
27.8384
27.8995
28.0347
28.244
28.5344
28.9195
29.4201
30.065
30.8918
31.9475
33.2891
34.981
37.0885
39.6616
42.7009
46.1078
49.645
52.9716
55.6082
57.0616
57.2268
56.0382
53.6264
50.2948
46.4758
42.6101
39.0653
36.0442
33.6194
31.7568
30.3751
29.3766
28.6684
28.1727
27.8287
27.5916
27.4289
27.3178
27.2421
27.1909
27.1562
27.1331
27.1178
27.1077
27.1012
27.0972
27.0947
27.0933
27.0925
27.0922
27.0921
27.0922
27.0922
27.0921
27.0916
27.09
27.0866
293.24
189.679
135.115
102.352
81.0712
66.3553
55.8162
48.0862
42.3238
37.9897
34.7228
32.2683
30.4379
29.0878
28.1061
27.4051
26.9131
26.5764
26.3563
26.2242
26.16
26.1505
26.1887
26.2733
26.4089
26.6068
26.8872
27.2832
27.8466
28.6576
29.8346
31.5315
33.8877
36.8902
40.2097
43.2741
45.5164
46.9283
47.805
48.0344
47.5075
46.1908
44.1639
41.6159
38.812
36.0541
33.5677
31.4838
29.84
28.6038
27.7074
27.0742
26.6351
26.3342
26.1295
25.9906
25.8965
25.8328
25.7894
25.7597
25.7392
25.725
25.7151
25.7083
25.7036
25.7003
25.698
25.6964
25.6953
25.6945
25.694
25.6935
25.6926
25.6898
25.6788
293.164
189.993
136.853
105.126
84.2889
69.7113
59.075
51.0557
44.8794
40.0605
36.2757
33.2987
30.9643
29.1464
27.7443
26.676
25.8732
25.2757
24.8358
24.5152
24.2835
24.1178
24.002
23.9276
23.8938
23.9108
24.0049
24.2293
24.685
25.5581
27.1781
30.0624
34.7998
41.5602
49.3041
56.1643
59.935
59.8594
58.6216
56.8024
54.5045
51.8116
48.7966
45.5331
42.1274
38.7398
35.5589
32.7479
30.4056
28.5543
27.1555
26.1362
25.4147
24.9152
24.5754
24.3471
24.1951
24.0946
24.0283
23.9846
23.9558
23.9368
23.9241
23.9155
23.9096
23.9056
23.9028
23.9008
23.8994
23.8984
23.8977
23.8971
23.8963
23.894
23.8848
293.088
189.325
136.376
105.217
84.9349
70.7671
60.3573
52.4219
46.2204
41.2922
37.3242
34.1105
31.5058
29.4026
27.7166
26.3788
25.3308
24.5218
23.9053
23.4413
23.0956
22.8408
22.6565
22.5315
22.4665
22.4802
22.6207
22.9923
23.8119
25.5272
29.0391
35.9691
48.4422
67.5723
90.1566
111.698
124.029
121.178
111.704
100.828
89.588
78.9588
69.4181
61.0615
53.805
47.5156
42.0925
37.494
33.6981
30.6648
28.3209
26.5657
25.288
24.3807
23.7501
23.3198
23.0308
22.8395
22.7142
22.6331
22.5809
22.5475
22.5264
22.5129
22.5043
22.4988
22.4953
22.493
22.4914
22.4904
22.4897
22.4891
22.4885
22.4867
22.4791
293.045
188.858
135.601
104.471
84.4171
70.5323
60.3824
52.6548
46.5922
41.7307
37.7701
34.5154
31.8329
29.625
27.8159
26.3466
25.1679
24.2368
23.5138
22.9624
22.5499
22.2488
22.039
21.9103
21.8735
21.9627
22.2676
22.9888
24.5746
28.0478
35.7172
52.2472
84.4299
137.792
203.191
280.167
338.607
332.703
288.166
235.456
186.722
147.497
117.434
94.7578
77.631
64.5486
54.4038
46.4488
40.194
35.3087
31.5453
28.6982
26.5874
25.0544
23.9632
23.2011
22.6783
22.3258
22.0916
21.9383
21.8393
21.7761
21.7362
21.7112
21.6957
21.6862
21.6803
21.6767
21.6745
21.6731
21.6722
21.6716
21.671
21.6695
21.6626
293.024
188.607
135.063
103.765
83.6863
69.8789
59.8603
52.28
46.3542
41.6049
37.7299
34.5312
31.8756
29.6685
27.8407
26.3397
25.1215
24.1478
23.3834
22.7962
22.3568
22.0406
21.8298
21.7225
21.7409
21.951
22.5109
23.7866
26.6557
33.3291
49.3791
87.4336
168.772
324.964
538.568
921.966
1413.82
1620.3
1264.35
787.525
477.625
308.695
210.802
151.926
114.347
89.1309
71.442
58.5888
49.0046
41.7542
36.2492
32.0883
28.9753
26.6783
25.0099
23.8194
22.9843
22.4087
22.0187
21.7586
21.5879
21.4774
21.4069
21.3625
21.3348
21.3178
21.3074
21.3011
21.2973
21.295
21.2937
21.2928
21.2921
21.2906
21.2838
293.013
188.478
134.753
103.296
83.1177
69.2737
59.2707
51.7418
45.8873
41.2166
37.4182
34.288
31.689
29.5256
27.7307
26.252
25.0474
24.0799
23.3169
22.729
22.2894
21.9774
21.7813
21.7116
21.8097
22.1857
23.1008
25.1845
30.0706
42.3122
74.7401
161.022
379.525
960.453
2036.06
5732.91
15540.3
25011
14862.6
5355.16
1855.46
778.32
395.308
238.542
161.274
117.343
89.8257
71.3093
58.1881
48.5597
41.3534
35.9184
31.8241
28.7627
26.5002
24.8527
23.6724
22.8412
22.2661
21.8753
21.614
21.4421
21.3308
21.2597
21.215
21.1872
21.1701
21.1597
21.1535
21.1497
21.1475
21.1461
21.1452
21.1435
21.1367
293.008
188.412
134.58
103.014
82.7462
68.8412
58.8069
51.273
45.4351
40.7969
37.041
33.9585
31.408
29.2919
27.5399
26.0987
24.9253
23.9833
23.2407
22.6692
22.2447
21.9503
21.7828
21.7637
21.9623
22.5479
23.9241
27.118
35.0369
56.6688
120.724
323.152
1063.03
5040.64
47834.8
500
500
500
500
500
37943.3
4522.8
1034.27
414.348
227.887
149.032
107.734
82.813
66.2677
54.5655
45.9561
39.4871
34.5867
30.8782
28.0922
26.025
24.514
23.4281
22.6616
22.1304
21.7689
21.5272
21.3684
21.2656
21.2001
21.159
21.1335
21.1179
21.1085
21.1028
21.0994
21.0974
21.096
21.0941
21.0872
293.005
188.375
134.481
102.845
82.5153
68.5594
58.4886
50.9331
45.0878
40.455
36.7152
33.6571
31.137
29.0546
27.3374
25.93
24.7879
23.8736
23.1549
22.6042
22.1992
21.9273
21.7928
21.8327
22.1475
22.9777
24.9114
29.5476
41.8526
78.9527
205.416
755.935
5110.55
500
500
500
500
500
500
500
500
208529
4442.95
843.226
327.919
183.352
123.661
92.078
72.5657
59.2749
49.6604
42.4619
36.9801
32.7847
29.5853
27.1689
25.3694
24.0514
23.1037
22.4354
21.9731
21.6593
21.4501
21.313
21.2248
21.1688
21.1338
21.1122
21.099
21.0911
21.0864
21.0835
21.0817
21.0796
21.0724
293.003
188.353
134.422
102.744
82.373
68.3821
58.2832
50.7072
44.8494
40.2124
36.4761
33.4283
30.9244
28.8626
27.1686
25.7854
24.6671
23.775
23.0764
22.544
22.1569
21.9065
21.8052
21.9052
22.3403
23.4295
25.9852
32.3852
50.7795
112.782
367.878
2140.39
53681.1
500
500
500
500
500
500
500
500
500
34625.6
1771
468.647
219.081
137.153
99.0889
77.1717
62.7618
52.4932
44.8234
38.9503
34.4077
30.8958
28.2022
26.1631
24.6453
23.5365
22.7426
22.1856
21.8025
21.5442
21.3731
21.2618
21.1906
21.1457
21.1179
21.1008
21.0905
21.0843
21.0806
21.0783
21.0758
21.0686
293.002
188.34
134.387
102.683
82.2875
68.2745
58.1571
50.5667
44.6989
40.0564
36.3193
33.2755
30.7796
28.7293
27.0492
25.6813
24.5785
23.7016
23.0171
22.4977
22.1243
21.8914
21.8183
21.9713
22.515
23.8471
27.0293
35.4308
61.8429
162.415
690.558
6135.1
500
500
500
500
500
500
500
500
500
500
500
4998.64
816.822
282.735
154.167
105.621
80.8269
65.4339
54.6961
46.7029
40.5498
35.7467
31.9921
29.0778
26.8446
25.1618
23.918
23.0174
22.3786
21.935
21.6329
21.4313
21.2991
21.2139
21.1599
21.1262
21.1054
21.0928
21.0852
21.0807
21.0779
21.0752
21.0678
293.002
188.333
134.368
102.651
82.2415
68.2164
58.0888
50.4901
44.6163
39.97
36.2317
33.1892
30.6971
28.6526
26.9799
25.6204
24.5264
23.6581
22.9817
22.4699
22.1046
21.8828
21.8287
22.0189
22.6416
24.1604
27.879
38.3095
74.3738
228.898
1296.92
17913.2
500
500
500
500
500
500
500
500
500
500
500
12917.4
1410.29
368.725
174.205
112.396
84.1953
67.7094
56.4853
48.1814
41.7779
36.756
32.8079
29.7244
27.3464
25.5427
24.2006
23.2222
22.5239
22.0357
21.7013
21.4768
21.3287
21.2329
21.1718
21.1335
21.1098
21.0953
21.0867
21.0814
21.0782
21.0753
21.0677
293.001
188.331
134.362
102.64
82.2267
68.1979
58.0669
50.4656
44.5898
39.9423
36.2036
33.1615
30.6707
28.6283
26.9583
25.6018
24.511
23.6455
22.9717
22.4622
22.0994
21.8811
21.8335
22.0373
22.6909
24.2921
28.3052
40.2311
85.0003
290.016
2060.96
31628.9
500
500
500
500
500
500
500
500
500
500
500
20273.5
1841.21
422.234
185.934
116.315
86.1143
68.9457
57.4007
48.896
42.3449
37.2072
33.1658
30.0061
27.5658
25.7112
24.3278
23.3166
22.5925
22.0846
21.7355
21.5002
21.3445
21.2433
21.1786
21.1378
21.1125
21.097
21.0877
21.0821
21.0785
21.0755
21.0678
293.002
188.333
134.368
102.651
82.2415
68.2164
58.0888
50.4902
44.6164
39.9703
36.2323
33.1902
30.6987
28.655
26.9833
25.6248
24.5316
23.6637
22.9873
22.4751
22.1091
21.8862
21.8309
22.0199
22.6427
24.166
27.9004
38.4106
75.0657
230.187
1297.48
17913.2
500
500
500
500
500
500
500
500
500
500
500
12917.4
1410.45
370.051
174.948
112.748
84.3374
67.7553
56.5005
48.1986
41.8097
36.804
32.8686
29.7924
27.4161
25.6094
24.2608
23.274
22.5666
22.0696
21.7273
21.4961
21.3428
21.2428
21.1787
21.1382
21.1129
21.0974
21.088
21.0823
21.0787
21.0756
21.0679
293.002
188.34
134.387
102.683
82.2875
68.2746
58.1572
50.5668
44.6991
40.0569
36.3203
33.2773
30.7826
28.7338
27.0555
25.6893
24.5881
23.712
23.0276
22.5074
22.1325
21.8973
21.8215
21.9721
22.5156
23.8558
27.0686
35.5716
62.516
164.806
690.399
6135.1
500
500
500
500
500
500
500
500
500
500
500
4998.64
816.987
284.329
155.119
106.052
80.9673
65.4502
54.6855
46.7123
40.5959
35.8289
32.1016
29.2028
26.9736
25.2853
24.0293
23.1126
22.4568
21.9967
21.6802
21.4663
21.3244
21.2317
21.1722
21.1345
21.111
21.0964
21.0875
21.0822
21.0787
21.0757
21.068
293.003
188.353
134.422
102.744
82.373
68.3821
58.2832
50.7073
44.8497
40.213
36.4774
33.4308
30.9285
28.8688
27.1772
25.7964
24.6802
23.7893
23.0909
22.5574
22.168
21.9142
21.8086
21.9043
22.3373
23.434
26.0265
32.5451
51.3815
114.802
367.425
2140.39
53681.1
500
500
500
500
500
500
500
500
500
34625.6
1771
468.723
219.769
137.39
99.0625
77.0487
62.6392
52.4206
44.8198
39.0152
34.5289
31.0554
28.3811
26.3446
24.8161
23.6881
22.8708
22.2895
21.8837
21.6056
21.4182
21.2941
21.2132
21.1612
21.1282
21.1075
21.0947
21.0869
21.0821
21.079
21.0762
21.0686
293.005
188.375
134.481
102.845
82.5153
68.5595
58.4887
50.9333
45.0881
40.4558
36.7168
33.66
31.1419
29.0621
27.3479
25.9435
24.804
23.8912
23.1727
22.6206
22.2125
21.9359
21.7956
21.829
22.1387
22.9715
24.9339
29.671
42.2885
80.1726
205.033
754.314
5110.55
500
500
500
500
500
500
500
500
208529
4442.95
843.451
327.897
183.376
123.403
91.7598
72.3004
59.1073
49.6029
42.5083
37.1124
32.9787
29.8147
27.41
25.6024
24.2629
23.286
22.5858
22.0924
21.7507
21.5181
21.3622
21.2593
21.1924
21.1495
21.1223
21.1053
21.0947
21.0882
21.0842
21.0816
21.0789
21.0715
293.008
188.412
134.58
103.014
82.7462
68.8412
58.807
51.2732
45.4355
40.7979
37.043
33.9621
31.4141
29.3011
27.5526
26.115
24.9445
24.0042
23.2615
22.6881
22.2597
21.9595
21.7844
21.7567
21.9467
22.5282
23.9172
27.1722
35.272
57.3132
121.507
321.919
1060.48
5040.64
47834.8
500
500
500
500
500
37943.3
4522.8
1034.41
414.282
228.378
149.164
107.645
82.6713
66.1717
54.5616
46.0565
39.6813
34.8511
31.1838
28.4108
26.3329
24.7942
23.6705
22.8624
22.2905
21.8921
21.6191
21.4348
21.3122
21.2317
21.1796
21.1463
21.1252
21.1119
21.1037
21.0986
21.0955
21.0934
21.0911
21.0838
293.013
188.479
134.753
103.296
83.1178
69.2738
59.2709
51.7421
45.888
41.2181
37.4211
34.2932
31.6973
29.5378
27.747
26.2722
25.0705
24.1044
23.3408
22.7501
22.3055
21.9862
21.781
21.7007
21.7873
22.1529
23.0653
25.1701
30.1309
42.5276
75.0566
161.021
377.61
957.131
2036.06
5732.91
15540.3
25011
14862.6
5355.16
1855.46
778.483
395.261
239.145
161.671
117.582
89.9872
71.4658
58.3898
48.8313
41.6957
36.3147
32.2482
29.1868
26.9001
25.211
23.9792
23.0934
22.466
22.0282
21.7271
21.523
21.3865
21.2964
21.2377
21.1998
21.1757
21.1605
21.1509
21.145
21.1413
21.139
21.1374
21.1354
21.1282
293.024
188.607
135.063
103.765
83.6863
69.879
59.8605
52.2805
46.3553
41.6074
37.7346
34.539
31.8876
29.6853
27.8623
26.3653
25.1497
24.1764
23.4103
22.8188
22.3726
22.0475
21.826
21.7065
21.7113
21.9069
22.4538
23.7231
26.6005
33.2908
49.303
87.18
168.064
322.768
534.728
920.908
1413.48
1620.16
1264.25
787.48
477.605
308.659
211.492
152.588
114.915
89.6363
71.9239
59.0791
49.5226
42.3032
36.8176
32.6547
29.5156
27.1714
25.4412
24.1818
23.2776
22.6376
22.1911
21.8838
21.6752
21.5353
21.4426
21.382
21.3427
21.3175
21.3015
21.2914
21.2851
21.2811
21.2787
21.2771
21.2759
21.2741
21.267
293.045
188.858
135.601
104.471
84.4171
70.5324
60.3827
52.6557
46.5942
41.7348
37.7775
34.5274
31.8503
29.6481
27.8441
26.3785
25.2012
24.2688
23.5421
22.9842
22.5629
22.2512
22.0293
21.8875
21.8362
21.9094
22.1965
22.8983
24.4611
27.8939
35.4624
51.7939
83.6972
136.527
200.959
277.256
335.467
329.932
286.924
235.227
187.082
148.102
118.133
95.467
78.3263
65.2332
55.0877
47.1389
40.8881
35.9946
32.2032
29.3068
27.1287
25.5174
24.3443
23.5033
22.9093
22.4956
22.2112
22.0181
21.8885
21.8024
21.7459
21.7091
21.6853
21.6701
21.6604
21.6543
21.6504
21.6479
21.6463
21.6453
21.6444
21.6427
21.6354
293.088
189.325
136.376
105.217
84.9349
70.7672
60.3578
52.4232
46.2235
41.2985
37.3353
34.1274
31.5292
29.4322
27.7508
26.4151
25.3663
24.5536
23.9307
23.458
23.1019
22.8354
22.6386
22.5005
22.4216
22.4199
22.5426
22.892
23.6805
25.3438
28.7546
35.504
47.7286
66.5548
88.7442
109.967
122.354
119.943
111.039
100.523
89.5728
79.1533
69.7535
61.4933
54.3085
48.0767
42.6984
38.127
34.3341
31.2767
28.8834
27.0603
25.7045
24.7172
24.0111
23.5139
23.1685
22.9316
22.7708
22.6627
22.5906
22.5429
22.5116
22.4911
22.4778
22.4691
22.4634
22.4597
22.4573
22.4557
22.4546
22.4538
22.453
22.4511
22.4433
293.164
189.993
136.853
105.126
84.289
69.7115
59.0757
51.0577
44.884
40.0694
36.2902
33.3197
30.9914
29.1779
27.7779
26.7085
25.9016
25.2978
24.8495
24.5191
24.277
24.1004
23.9737
23.8881
23.8427
23.8468
23.9257
24.1306
24.5586
25.388
26.9328
29.6915
34.2524
40.8158
48.3861
55.168
59.0304
59.1715
58.1347
56.4647
54.2962
51.7226
48.8215
45.6691
42.3692
39.074
35.9609
33.185
30.843
28.9624
27.5134
26.4336
25.6494
25.0914
24.7005
24.4299
24.2443
24.1179
24.0324
23.9746
23.9359
23.9099
23.8924
23.8805
23.8724
23.867
23.8633
23.8607
23.859
23.8577
23.8568
23.8561
23.8552
23.8527
23.8439
293.24
189.679
135.115
102.352
81.0713
66.3557
55.8174
48.0894
42.3301
38.0003
34.738
32.2875
30.4593
29.1091
28.1247
27.4186
26.92
26.5756
26.3473
26.2068
26.1343
26.1168
26.1473
26.2241
26.3516
26.5402
26.8093
27.1903
27.7327
28.5123
29.6407
31.2637
33.5199
36.4125
39.6432
42.6718
44.9453
46.4302
47.3784
47.6765
47.2259
45.9991
44.075
41.6345
38.9291
36.2467
33.8039
31.7312
30.0722
28.8039
27.8676
27.1935
26.717
26.3842
26.1538
25.9949
25.8858
25.8111
25.7598
25.7245
25.7002
25.6834
25.6717
25.6638
25.6583
25.6545
25.6519
25.6501
25.6488
25.6479
25.6473
25.6466
25.6453
25.6417
25.6306
293.474
184.574
128.041
94.9976
74.1094
60.299
50.8275
44.1401
39.329
35.8363
33.2989
31.4668
30.16
29.2447
28.6204
28.2132
27.9664
27.8421
27.8149
27.8693
27.9984
28.202
28.4868
28.8661
29.3605
29.9982
30.816
31.8602
33.1862
34.8566
36.9344
39.4675
42.4586
45.8179
49.3233
52.6472
55.3127
56.8107
57.0279
55.8968
53.5477
50.2816
46.5255
42.7125
39.2035
36.1978
33.7694
31.8892
30.4818
29.4551
28.72
28.2009
27.8377
27.5857
27.4117
27.2923
27.2107
27.1552
27.1177
27.0926
27.076
27.065
27.058
27.0535
27.0508
27.0492
27.0483
27.0479
27.0478
27.0478
27.0477
27.0473
27.0457
27.0405
27.0258
)
;

boundaryField
{
    ibCylinder
    {
        type            immersedBoundaryOmegaWallFunction;
        patchType       immersedBoundary;
        blending        stepwise;
        setDeadValue    true;
        deadValue       500;
        value           nonuniform List<scalar> 0();
    }
    in
    {
        type            fixedValue;
        value           uniform 500;
    }
    out
    {
        type            inletOutlet;
        inletValue      uniform 500;
        value           nonuniform List<scalar> 
25
(
27.0866
25.6788
23.8848
22.4791
21.6626
21.2838
21.1367
21.0872
21.0724
21.0686
21.0678
21.0677
21.0678
21.0679
21.068
21.0686
21.0715
21.0838
21.1282
21.267
21.6354
22.4433
23.8439
25.6306
27.0258
)
;
    }
    top
    {
        type            zeroGradient;
    }
    bottom
    {
        type            zeroGradient;
    }
    frontAndBack
    {
        type            empty;
    }
}


// ************************************************************************* //
