/*--------------------------------*- C++ -*----------------------------------*\
| =========                 |                                                 |
| \\      /  F ield         | OpenFOAM: The Open Source CFD Toolbox           |
|  \\    /   O peration     | Version:  2206                                  |
|   \\  /    A nd           | Website:  www.openfoam.com                      |
|    \\/     M anipulation  |                                                 |
\*---------------------------------------------------------------------------*/
FoamFile
{
    version     2.0;
    format      ascii;
    arch        "LSB;label=32;scalar=64";
    class       volScalarField;
    location    "0.6";
    object      p;
}
// * * * * * * * * * * * * * * * * * * * * * * * * * * * * * * * * * * * * * //

dimensions      [0 2 -2 0 0 0 0];

internalField   nonuniform List<scalar> 
1875
(
3.50892
3.11971
2.86904
2.77158
2.71212
2.66541
2.6316
2.60792
2.59011
2.57551
2.56283
2.55136
2.54064
2.53038
2.52036
2.51033
2.49987
2.48863
2.47625
2.46233
2.44635
2.42766
2.40549
2.37886
2.3465
2.30679
2.25768
2.1966
2.12049
2.02584
1.90903
1.76688
1.59773
1.40322
1.18955
0.966727
0.743061
0.535279
0.358743
0.220553
0.121003
0.0557933
0.0181997
0.000692334
-0.00252902
0.00402849
0.015908
0.0296732
0.0439651
0.0577613
0.0703545
0.0812884
0.0903076
0.097325
0.102361
0.105505
0.106909
0.106762
0.105244
0.102539
0.0988436
0.0943214
0.0891197
0.0833619
0.0771583
0.0705958
0.0637464
0.0566693
0.0494137
0.042018
0.0345144
0.0269283
0.0192812
0.0115904
0.00387037
3.13397
2.97856
2.85012
2.77308
2.72022
2.67741
2.64355
2.61845
2.59876
2.58231
2.56803
2.55524
2.54347
2.5324
2.52172
2.51116
2.5003
2.4887
2.47604
2.46189
2.4457
2.42682
2.40446
2.37764
2.34508
2.30515
2.25574
2.1942
2.11731
2.02132
1.90225
1.75646
1.58177
1.37947
1.15643
0.923836
0.695947
0.486865
0.316347
0.190001
0.105647
0.0554458
0.0297707
0.0193404
0.0183187
0.0238845
0.0329877
0.0440925
0.05586
0.067394
0.0780701
0.0874365
0.0952001
0.101212
0.105439
0.107935
0.108826
0.108271
0.106424
0.103455
0.099549
0.094871
0.0895485
0.0836914
0.0774108
0.0707916
0.0638965
0.0567833
0.0494997
0.0420824
0.0345617
0.0269623
0.0193041
0.0116037
0.00387468
2.95719
2.90688
2.83649
2.77806
2.73076
2.69013
2.65699
2.63037
2.60866
2.59059
2.575
2.56104
2.54831
2.53647
2.52521
2.51422
2.50317
2.49148
2.47886
2.46491
2.44911
2.43081
2.40921
2.38332
2.35184
2.31306
2.2647
2.20382
2.12667
2.02872
1.90487
1.75006
1.56064
1.33696
1.08736
0.827559
0.576945
0.358815
0.188697
0.0735688
0.0164
-0.00196665
-0.000193816
0.011776
0.0267017
0.0401479
0.0522811
0.0636112
0.0739721
0.0833255
0.091622
0.098727
0.104478
0.10876
0.111532
0.112828
0.112735
0.111365
0.108864
0.105383
0.101067
0.0960576
0.0904717
0.0844089
0.0779633
0.0712169
0.0642231
0.0570331
0.0496893
0.0422246
0.0346661
0.0270363
0.0193532
0.0116314
0.00388263
2.87788
2.85701
2.81217
2.76806
2.73019
2.69686
2.66734
2.64079
2.61907
2.6007
2.58392
2.56885
2.5554
2.54315
2.53164
2.52053
2.50957
2.4983
2.48632
2.47329
2.45878
2.44215
2.4227
2.39945
2.37095
2.33538
2.29025
2.23204
2.15605
2.05629
1.92536
1.75536
1.53946
1.27506
0.973061
0.65669
0.354457
0.119596
-0.045098
-0.147494
-0.165747
-0.129799
-0.0787395
-0.0272055
0.0182247
0.0509371
0.0732267
0.0886371
0.0992866
0.106814
0.112326
0.116389
0.119214
0.120858
0.121338
0.120708
0.119031
0.116357
0.1128
0.108479
0.103492
0.0979458
0.0919372
0.0855466
0.0788451
0.0718925
0.0647397
0.0574263
0.0499864
0.0424465
0.0348284
0.0271507
0.019428
0.0116728
0.00389406
2.82541
2.81463
2.78719
2.75516
2.72527
2.69781
2.67252
2.64906
2.62886
2.61089
2.59372
2.57854
2.56522
2.55277
2.54086
2.52961
2.51891
2.50836
2.49751
2.48605
2.4736
2.45956
2.4433
2.42415
2.40041
2.36988
2.33001
2.27661
2.2037
2.1031
1.96392
1.77353
1.51674
1.18227
0.790153
0.376115
0.015118
-0.240451
-0.394289
-0.458992
-0.439215
-0.350581
-0.227975
-0.11384
-0.0203276
0.0439596
0.0884112
0.116157
0.131236
0.138184
0.140685
0.140864
0.139724
0.137709
0.134942
0.13159
0.127695
0.123183
0.118142
0.112663
0.106752
0.100477
0.0938979
0.0870617
0.0800118
0.0727876
0.0654236
0.0579444
0.0503753
0.0427357
0.0350395
0.0272992
0.0195252
0.0117267
0.00390951
2.78917
2.78299
2.76558
2.74272
2.71934
2.69664
2.67497
2.65439
2.63538
2.61826
2.60246
2.58787
2.57476
2.56252
2.55079
2.54
2.52999
2.52047
2.5111
2.50162
2.49181
2.48132
2.46953
2.45547
2.43776
2.41443
2.38254
2.33731
2.27137
2.17379
2.02842
1.81457
1.49557
1.07701
0.606773
0.0992069
-0.37979
-0.666598
-0.795087
-0.822486
-0.731539
-0.578725
-0.399405
-0.218567
-0.0693006
0.0302413
0.0987343
0.142326
0.164614
0.17301
0.173366
0.169666
0.164124
0.15781
0.151194
0.144614
0.138093
0.131337
0.124499
0.117642
0.110615
0.10347
0.0962177
0.0888551
0.0813926
0.0738476
0.0662332
0.0585598
0.0508388
0.0430794
0.0352892
0.0274746
0.0196407
0.0117921
0.00392945
2.76371
2.75979
2.74799
2.73122
2.71284
2.69412
2.67556
2.65752
2.64038
2.62449
2.60961
2.59553
2.58251
2.5709
2.56036
2.55047
2.54127
2.53293
2.52531
2.51815
2.51137
2.50495
2.49821
2.4903
2.48039
2.46666
2.44604
2.41349
2.36059
2.27373
2.12971
1.89534
1.52314
1.07724
0.66342
0.232302
-0.526279
-0.973466
-1.08707
-1.13928
-1.00734
-0.772638
-0.524316
-0.301007
-0.115163
0.0206423
0.108959
0.165817
0.196019
0.20719
0.206427
0.199352
0.189527
0.178893
0.168452
0.15854
0.149113
0.140006
0.131398
0.123086
0.114797
0.106694
0.0987116
0.0907857
0.082882
0.0749939
0.0671114
0.0592287
0.0513439
0.0434559
0.0355639
0.027668
0.019768
0.0118642
0.00395257
2.74537
2.74261
2.73407
2.72134
2.70661
2.69099
2.67502
2.65912
2.64368
2.62897
2.61503
2.60193
2.58981
2.57878
2.56869
2.55952
2.55145
2.54459
2.53885
2.53422
2.53073
2.52846
2.52705
2.52608
2.52509
2.52267
2.51611
2.50077
2.46832
2.4044
2.28233
2.05589
1.69257
1.25781
0.570225
0
0
0
0
0
-0.880183
-0.760538
-0.518452
-0.307479
-0.121518
0.0287579
0.130449
0.194685
0.229336
0.240804
0.237867
0.227299
0.213551
0.199138
0.185121
0.171953
0.159763
0.148533
0.138207
0.12838
0.118975
0.110008
0.101273
0.0927445
0.0843811
0.0761448
0.067994
0.0599018
0.0518534
0.0438371
0.0358432
0.0278653
0.0198982
0.0119382
0.00397723
2.73208
2.72996
2.7234
2.71334
2.70124
2.68796
2.67399
2.65979
2.64573
2.63211
2.61908
2.60679
2.59539
2.58495
2.57555
2.56727
2.56032
2.55483
2.55091
2.54871
2.5484
2.5502
2.55422
2.56046
2.56877
2.57844
2.5877
2.593
2.58724
2.55828
2.47973
2.30242
2.04428
0
0
0
0
0
0
0
0
-0.56667
-0.380481
-0.217988
-0.0694184
0.0646011
0.16355
0.227248
0.26109
0.271327
0.266144
0.25252
0.235247
0.217241
0.199952
0.18398
0.16949
0.156324
0.144272
0.133142
0.122796
0.113028
0.103643
0.0945915
0.0858165
0.0772438
0.0688287
0.0605347
0.052332
0.0441955
0.0361065
0.0280519
0.0200217
0.0120082
0.00400126
2.72263
2.72091
2.71557
2.70725
2.69696
2.68536
2.6729
2.65998
2.647
2.63427
2.62199
2.61036
2.59956
2.58973
2.58103
2.57356
2.5675
2.56318
2.56086
2.56081
2.56334
2.56886
2.57783
2.59066
2.60776
2.62919
2.65431
2.68104
2.70416
2.71415
2.67733
2.57157
2.48644
0
0
0
0
0
0
0
0
0
-0.252253
-0.10798
0.00410578
0.11514
0.201824
0.259409
0.289516
0.297124
0.289426
0.273051
0.252851
0.232021
0.212206
0.194019
0.1776
0.162835
0.149433
0.137194
0.125949
0.115476
0.105591
0.0961254
0.0870265
0.0781932
0.0695541
0.0610886
0.0527509
0.0445078
0.0363355
0.0282146
0.0201298
0.0120691
0.00402264
2.71631
2.71482
2.71023
2.70298
2.69387
2.6834
2.67197
2.65996
2.64775
2.63567
2.62395
2.61282
2.60247
2.59311
2.58494
2.57812
2.57284
2.56938
2.56827
2.5699
2.57467
2.58316
2.5961
2.6143
2.63866
2.67001
2.7088
2.75447
2.80388
2.84913
2.85401
2.83109
0
0
0
0
0
0
0
0
0
0
0
-0.0159671
0.0722971
0.16422
0.237321
0.28689
0.312659
0.317351
0.307355
0.288509
0.265898
0.242958
0.221282
0.201459
0.183627
0.167661
0.153293
0.140286
0.128391
0.117381
0.107064
0.0972686
0.0879064
0.0788793
0.0700955
0.0615101
0.0530737
0.0447496
0.0365137
0.0283416
0.0202149
0.0121181
0.00404006
2.71267
2.71131
2.70711
2.70046
2.692
2.68219
2.67136
2.65989
2.64814
2.63645
2.62509
2.61425
2.60418
2.59511
2.58725
2.58084
2.57613
2.5733
2.57287
2.57553
2.58174
2.59215
2.60765
2.62935
2.65851
2.6965
2.74458
2.80339
2.87141
2.9425
2.99339
3.09923
0
0
0
0
0
0
0
0
0
0
0
0.0510403
0.12164
0.198243
0.26256
0.305908
0.328147
0.330763
0.31899
0.298186
0.273947
0.249708
0.226882
0.206045
0.187348
0.170654
0.155699
0.142205
0.129907
0.118568
0.107987
0.0979947
0.0884691
0.0793101
0.0704287
0.0617649
0.0532679
0.0448985
0.0366248
0.0284209
0.0202679
0.0121491
0.00405156
2.71148
2.71017
2.70609
2.69962
2.69138
2.68178
2.67115
2.65986
2.64826
2.6367
2.62545
2.61472
2.60475
2.59576
2.588
2.5817
2.57724
2.57472
2.57444
2.57742
2.58414
2.59521
2.6116
2.63452
2.66535
2.70567
2.75703
2.82056
2.89551
2.97745
3.04883
3.21785
0
0
0
0
0
0
0
0
0
0
0
0.084167
0.140616
0.210488
0.271806
0.312777
0.333655
0.335799
0.323203
0.301417
0.276595
0.251962
0.228766
0.207591
0.188604
0.171667
0.156512
0.142853
0.130419
0.118969
0.1083
0.0982404
0.0886609
0.0794575
0.0705426
0.0618515
0.0533327
0.0449472
0.0366605
0.0284465
0.0202851
0.0121587
0.00405511
2.71267
2.71131
2.70711
2.70046
2.692
2.68218
2.67136
2.65989
2.64814
2.63645
2.62508
2.61425
2.60418
2.59511
2.58725
2.58084
2.57613
2.5733
2.57287
2.57553
2.58174
2.59215
2.60765
2.62935
2.65851
2.6965
2.74458
2.80339
2.87141
2.94251
2.99342
3.09927
0
0
0
0
0
0
0
0
0
0
0
0.0510728
0.121639
0.198236
0.262557
0.305909
0.32815
0.330764
0.318987
0.298183
0.273942
0.249703
0.226877
0.20604
0.187343
0.17065
0.155695
0.142201
0.129903
0.118564
0.107983
0.0979917
0.0884663
0.0793075
0.0704264
0.0617627
0.053266
0.0448968
0.0366235
0.0284199
0.0202672
0.0121486
0.00405142
2.7163
2.71482
2.71022
2.70298
2.69386
2.68339
2.67196
2.65995
2.64774
2.63566
2.62395
2.61281
2.60246
2.59311
2.58493
2.57811
2.57284
2.56938
2.56827
2.5699
2.57467
2.58316
2.5961
2.6143
2.63865
2.67
2.70879
2.75447
2.80389
2.84915
2.85405
2.83116
0
0
0
0
0
0
0
0
0
0
0
-0.0159844
0.0722833
0.164208
0.237314
0.286888
0.312658
0.317347
0.307346
0.2885
0.265888
0.242947
0.221272
0.201449
0.183617
0.167652
0.153285
0.140278
0.128383
0.117373
0.107057
0.0972624
0.0879008
0.0788741
0.0700908
0.0615058
0.0530699
0.0447464
0.0365111
0.0283396
0.0202135
0.0121173
0.00403979
2.72262
2.7209
2.71556
2.70724
2.69695
2.68535
2.67289
2.65997
2.64699
2.63426
2.62198
2.61035
2.59955
2.58972
2.58102
2.57355
2.56749
2.56317
2.56086
2.5608
2.56333
2.56886
2.57782
2.59066
2.60775
2.62918
2.6543
2.68103
2.70416
2.71417
2.67737
2.57163
2.48649
0
0
0
0
0
0
0
0
0
-0.252285
-0.108006
0.00408817
0.115127
0.201812
0.259398
0.289505
0.29711
0.28941
0.273034
0.252834
0.232005
0.212191
0.194004
0.177586
0.162822
0.14942
0.137182
0.125937
0.115465
0.105581
0.0961162
0.0870182
0.0781855
0.0695471
0.0610822
0.0527453
0.044503
0.0363317
0.0282116
0.0201277
0.0120679
0.00402224
2.73206
2.72995
2.72339
2.71333
2.70123
2.68795
2.67398
2.65977
2.64572
2.6321
2.61907
2.60678
2.59538
2.58494
2.57554
2.56726
2.5603
2.55482
2.5509
2.5487
2.54839
2.5502
2.55422
2.56045
2.56876
2.57843
2.58769
2.59299
2.58723
2.55829
2.47975
2.30246
2.0443
0
0
0
0
0
0
0
0
-0.566721
-0.380495
-0.218005
-0.0694352
0.0645865
0.163533
0.227227
0.261068
0.271304
0.26612
0.252496
0.235224
0.217219
0.199931
0.18396
0.169471
0.156306
0.144255
0.133126
0.122781
0.113013
0.10363
0.0945794
0.0858054
0.0772337
0.0688194
0.0605263
0.0523247
0.0441893
0.0361015
0.028048
0.020019
0.0120067
0.00400074
2.74536
2.74259
2.73405
2.72133
2.70659
2.69097
2.675
2.65911
2.64367
2.62895
2.61502
2.60191
2.5898
2.57876
2.56868
2.5595
2.55144
2.54457
2.53884
2.5342
2.53072
2.52845
2.52704
2.52607
2.52508
2.52265
2.51609
2.50075
2.46831
2.4044
2.28234
2.05591
1.69257
1.25777
0.569723
0
0
0
0
0
-0.88022
-0.760622
-0.518485
-0.307486
-0.121531
0.0287416
0.130425
0.194656
0.229305
0.240773
0.237836
0.227268
0.213522
0.19911
0.185094
0.171928
0.159739
0.148511
0.138186
0.12836
0.118956
0.109991
0.101257
0.0927295
0.0843674
0.0761324
0.0679827
0.0598916
0.0518445
0.0438295
0.035837
0.0278605
0.0198949
0.0119362
0.00397658
2.76369
2.75977
2.74797
2.73121
2.71282
2.69411
2.67554
2.6575
2.64036
2.62447
2.60959
2.59551
2.58249
2.57088
2.56034
2.55046
2.54125
2.53291
2.5253
2.51814
2.51135
2.50494
2.4982
2.49028
2.48037
2.46664
2.44602
2.41347
2.36058
2.27372
2.12972
1.89535
1.52316
1.07726
0.663463
0.232331
-0.52624
-0.973408
-1.087
-1.13926
-1.00734
-0.772655
-0.524341
-0.301005
-0.115176
0.0206154
0.108929
0.165782
0.195981
0.207151
0.206388
0.199315
0.189492
0.17886
0.16842
0.15851
0.149085
0.139979
0.131374
0.123063
0.114775
0.106673
0.0986925
0.0907681
0.082866
0.0749792
0.0670981
0.0592167
0.0513334
0.043447
0.0355567
0.0276625
0.0197641
0.0118619
0.00395178
2.78915
2.78297
2.76556
2.7427
2.71932
2.69662
2.67495
2.65437
2.63536
2.61824
2.60244
2.58785
2.57474
2.5625
2.55077
2.53998
2.52997
2.52045
2.51108
2.50161
2.49179
2.4813
2.46951
2.45545
2.43774
2.41441
2.38251
2.33729
2.27136
2.17378
2.02841
1.81457
1.49558
1.07703
0.60681
0.0992349
-0.379766
-0.666568
-0.795065
-0.822483
-0.731549
-0.578742
-0.399423
-0.21857
-0.0693209
0.0302011
0.0986917
0.142283
0.16457
0.172966
0.173322
0.169624
0.164084
0.157772
0.151158
0.14458
0.138061
0.131307
0.12447
0.117615
0.11059
0.103447
0.096196
0.0888351
0.0813744
0.073831
0.0662182
0.0585463
0.0508269
0.0430693
0.035281
0.0274683
0.0196363
0.0117894
0.00392854
2.82539
2.81461
2.78717
2.75514
2.72525
2.69778
2.6725
2.64904
2.62883
2.61087
2.5937
2.57852
2.5652
2.55275
2.54083
2.52959
2.51889
2.50834
2.49749
2.48603
2.47358
2.45954
2.44328
2.42412
2.40038
2.36985
2.32998
2.27659
2.20368
2.10309
1.96392
1.77353
1.51674
1.18229
0.790179
0.376125
0.0151254
-0.240443
-0.394289
-0.458995
-0.439231
-0.3506
-0.227999
-0.113863
-0.0203579
0.0439219
0.0883681
0.116112
0.131189
0.138136
0.140638
0.140818
0.139681
0.137667
0.134902
0.131552
0.12766
0.12315
0.11811
0.112633
0.106725
0.100451
0.093874
0.0870396
0.0799916
0.0727692
0.065407
0.0579295
0.0503623
0.0427246
0.0350304
0.0272921
0.0195202
0.0117238
0.00390848
2.87785
2.85699
2.81214
2.76803
2.73016
2.69684
2.66731
2.64076
2.61905
2.60068
2.5839
2.56883
2.55538
2.54313
2.53161
2.5205
2.50954
2.49828
2.48629
2.47327
2.45875
2.44213
2.42268
2.39943
2.37093
2.33535
2.29023
2.23201
2.15603
2.05627
1.92534
1.75535
1.53946
1.27507
0.973072
0.656696
0.35446
0.119594
-0.045101
-0.147502
-0.165762
-0.12982
-0.0787634
-0.0272304
0.0181938
0.0509006
0.073185
0.088592
0.099239
0.106765
0.112277
0.116341
0.119168
0.120814
0.121296
0.120668
0.118993
0.116321
0.112766
0.108447
0.103462
0.097918
0.0919114
0.0855228
0.0788233
0.0718728
0.0647218
0.0574104
0.0499725
0.0424346
0.0348186
0.0271431
0.0194227
0.0116696
0.00389293
2.95716
2.90685
2.83647
2.77804
2.73073
2.6901
2.65697
2.63035
2.60863
2.59056
2.57497
2.56102
2.54828
2.53645
2.52518
2.51419
2.50314
2.49145
2.47883
2.46488
2.44909
2.43078
2.40919
2.38329
2.35181
2.31303
2.26467
2.20379
2.12665
2.0287
1.90486
1.75005
1.56064
1.33696
1.08736
0.827558
0.576941
0.358809
0.188685
0.073555
0.0163809
-0.00199009
-0.000218098
0.0117514
0.026673
0.040112
0.052239
0.0635648
0.0739228
0.0832745
0.0915709
0.0986769
0.104429
0.108713
0.111488
0.112786
0.112695
0.111328
0.108829
0.105349
0.101036
0.0960283
0.0904445
0.0843838
0.0779404
0.0711962
0.0642044
0.0570164
0.0496747
0.0422121
0.0346559
0.0270284
0.0193475
0.0116281
0.00388144
3.13394
2.97854
2.8501
2.77305
2.72019
2.67738
2.64353
2.61842
2.59873
2.58228
2.56801
2.55521
2.54344
2.53237
2.52169
2.51113
2.50027
2.48867
2.47601
2.46186
2.44567
2.42679
2.40444
2.37761
2.34505
2.30512
2.25571
2.19417
2.11729
2.02131
1.90224
1.75645
1.58176
1.37946
1.15642
0.923829
0.695937
0.486852
0.316331
0.189982
0.105625
0.0554213
0.0297444
0.0193138
0.018291
0.0238476
0.0329442
0.044046
0.0558102
0.0673425
0.0780185
0.0873857
0.095151
0.101165
0.105394
0.107892
0.108785
0.108232
0.106387
0.103421
0.0995167
0.0948409
0.0895204
0.0836656
0.0773872
0.0707702
0.0638772
0.0567662
0.0494847
0.0420696
0.0345512
0.0269541
0.0192982
0.0116002
0.00387346
3.5089
3.11968
2.86902
2.77155
2.71209
2.66538
2.63157
2.60789
2.59008
2.57548
2.5628
2.55133
2.54061
2.53035
2.52033
2.5103
2.49984
2.4886
2.47622
2.4623
2.44632
2.42763
2.40547
2.37883
2.34647
2.30676
2.25765
2.19658
2.12046
2.02582
1.90901
1.76687
1.59772
1.40321
1.18954
0.966717
0.743048
0.535262
0.358725
0.220532
0.12098
0.0557663
0.0181714
0.000663403
-0.00256144
0.00399116
0.0158651
0.0296269
0.0439157
0.0577107
0.0703032
0.0812381
0.0902584
0.0972779
0.102316
0.105462
0.106867
0.106723
0.105206
0.102504
0.0988109
0.0942911
0.0890914
0.0833359
0.0771344
0.0705743
0.0637269
0.0566521
0.0493985
0.0420051
0.0345037
0.0269201
0.0192752
0.0115868
0.00386914
)
;

boundaryField
{
    ibCylinder
    {
        type            zeroGradientIb;
        patchType       immersedBoundary;
        setDeadValue    true;
        deadValue       0;
        value           nonuniform List<scalar> 0();
    }
    in
    {
        type            zeroGradient;
    }
    out
    {
        type            fixedValue;
        value           uniform 0;
    }
    top
    {
        type            zeroGradient;
    }
    bottom
    {
        type            zeroGradient;
    }
    frontAndBack
    {
        type            empty;
    }
}


// ************************************************************************* //
