/*--------------------------------*- C++ -*----------------------------------*\
| =========                 |                                                 |
| \\      /  F ield         | OpenFOAM: The Open Source CFD Toolbox           |
|  \\    /   O peration     | Version:  2206                                  |
|   \\  /    A nd           | Website:  www.openfoam.com                      |
|    \\/     M anipulation  |                                                 |
\*---------------------------------------------------------------------------*/
FoamFile
{
    version     2.0;
    format      ascii;
    arch        "LSB;label=32;scalar=64";
    class       surfaceScalarField;
    location    "0.6";
    object      phi;
}
// * * * * * * * * * * * * * * * * * * * * * * * * * * * * * * * * * * * * * //

dimensions      [0 3 -1 0 0 0 0];

oriented        oriented;

internalField   nonuniform List<scalar> 
3650
(
0.00275132
0.000448678
0.00224425
0.000507075
0.00181505
0.0004292
0.00148365
0.000331402
0.00124
0.000243648
0.00106706
0.000172941
0.000945299
0.000121758
0.000859641
8.56579e-05
0.000798632
6.10093e-05
0.000754545
4.40872e-05
0.000722665
3.18796e-05
0.000700087
2.25782e-05
0.000685054
1.50336e-05
0.000676501
8.55293e-06
0.000673764
2.73651e-06
0.000676067
-2.30235e-06
0.000682955
-6.88778e-06
0.000694761
-1.18065e-05
0.000711776
-1.70148e-05
0.000734527
-2.27503e-05
0.000763858
-2.93314e-05
0.000800977
-3.71194e-05
0.000847498
-4.65213e-05
0.000905452
-5.79544e-05
0.000977248
-7.17968e-05
0.00106556
-8.83143e-05
0.00117316
-0.000107598
0.00130257
-0.000129415
0.00145553
-0.000152962
0.00163213
-0.000176601
0.00182971
-0.000197574
0.00204148
-0.00021178
0.00225517
-0.000213683
0.00245195
-0.000196781
0.00260786
-0.000155913
0.0026981
-9.02381e-05
0.00270368
-5.58435e-06
0.00262927
7.44137e-05
0.00247684
0.000152423
0.00226269
0.000214159
0.00201284
0.000249848
0.00175662
0.000256223
0.00151782
0.000238799
0.00130997
0.00020785
0.00113756
0.000172415
0.000999355
0.000138203
0.000891956
0.000107401
0.000810279
8.16779e-05
0.000749666
6.06148e-05
0.000705817
4.38498e-05
0.000674976
3.08426e-05
0.000653981
2.09949e-05
0.00064026
1.3722e-05
0.000631758
8.50195e-06
0.000626882
4.8765e-06
0.000624445
2.43744e-06
0.000623594
8.52201e-07
0.000623724
-1.30734e-07
0.000624394
-6.69308e-07
0.000625317
-9.23425e-07
0.00062633
-1.01172e-06
0.000627329
-9.99739e-07
0.000628264
-9.34179e-07
0.000629098
-8.34235e-07
0.000629825
-7.27144e-07
0.000630445
-6.19884e-07
0.000630964
-5.18075e-07
0.000631391
-4.27386e-07
0.000631738
-3.46803e-07
0.000632015
-2.76685e-07
0.000632231
-2.16257e-07
0.000632395
-1.6389e-07
0.000632513
-1.17756e-07
0.000632588
-7.58025e-08
-3.57878e-08
0.00336538
0.000283298
0.00335144
0.000521016
0.00323323
0.00054741
0.00305627
0.000508366
0.00284978
0.000450137
0.00264413
0.000378589
0.00246039
0.000305498
0.00230503
0.000241021
0.00217724
0.000188798
0.00207449
0.000146834
0.00199384
0.000112527
0.0019322
8.42218e-05
0.00188701
6.02246e-05
0.00185632
3.92404e-05
0.00183855
2.05065e-05
0.00183245
3.79886e-06
0.0018367
-1.11321e-05
0.00185094
-2.60472e-05
0.00187541
-4.1489e-05
0.00191057
-5.79066e-05
0.0019574
-7.61596e-05
0.00201748
-9.72033e-05
0.00209305
-0.000122095
0.00218698
-0.000151882
0.00230272
-0.000187535
0.00244413
-0.000229726
0.00261531
-0.000278774
0.00282021
-0.000334316
0.00306204
-0.000394799
0.00334233
-0.000456893
0.00365967
-0.000514915
0.00400789
-0.000559998
0.00437423
-0.000580028
0.00473684
-0.000559387
0.00506425
-0.000483328
0.00531913
-0.000345122
0.00546255
-0.000148996
0.00547143
6.55291e-05
0.00535085
0.000273002
0.00510149
0.000463525
0.00474737
0.000603964
0.00432704
0.000676551
0.0038823
0.000683543
0.00345291
0.000637245
0.0030685
0.00055682
0.00274296
0.000463744
0.00247817
0.000372197
0.00227024
0.000289603
0.00211162
0.000219237
0.00199361
0.000161864
0.00190777
0.000116681
0.00184666
8.21082e-05
0.00180407
5.63119e-05
0.00177504
3.75294e-05
0.00175573
2.41889e-05
0.00174325
1.49226e-05
0.00173547
8.63343e-06
0.00173083
4.50143e-06
0.00172828
1.88622e-06
0.00172707
2.83541e-07
0.00172671
-6.44371e-07
0.00172683
-1.12627e-06
0.00172723
-1.32839e-06
0.00172774
-1.34789e-06
0.00172829
-1.27399e-06
0.00172882
-1.15723e-06
0.00172932
-1.01118e-06
0.00172975
-8.61902e-07
0.00173012
-7.1855e-07
0.00173043
-5.85641e-07
0.00173068
-4.6569e-07
0.00173088
-3.57511e-07
0.00173102
-2.59723e-07
0.00173111
-1.6971e-07
-7.73758e-08
0.00332624
0.000157062
0.00346211
0.000385138
0.00352911
0.000480414
0.00353725
0.000500226
0.0035009
0.00048649
0.00343035
0.000449135
0.0033368
0.000399052
0.00323129
0.000346532
0.00312582
0.000294265
0.00302881
0.000243842
0.00294376
0.000197581
0.00287182
0.000156157
0.00281348
0.000118566
0.00276878
8.39425e-05
0.00273738
5.19052e-05
0.00271879
2.23927e-05
0.00271248
-4.82161e-06
0.00271755
-3.11246e-05
0.00273427
-5.82039e-05
0.00276299
-8.66277e-05
0.00280448
-0.000117646
0.00286
-0.000152725
0.0029316
-0.000193692
0.0030219
-0.000242189
0.00313425
-0.000299879
0.00327269
-0.000368166
0.00344192
-0.000448005
0.00364704
-0.000539442
0.00389316
-0.000640917
0.00418463
-0.000748362
0.00452395
-0.000854237
0.00490979
-0.000945844
0.00533352
-0.00100376
0.00577359
-0.000999453
0.00619539
-0.000905133
0.00655376
-0.000703491
0.0068025
-0.000397732
0.00691286
-4.48363e-05
0.00687298
0.00031289
0.0066821
0.000654404
0.00636547
0.000920597
0.00595332
0.0010887
0.00548071
0.00115615
0.00498722
0.00113074
0.00451185
0.00103219
0.00408426
0.000891341
0.00372
0.000736458
0.00342339
0.000586214
0.00319058
0.000452043
0.00301325
0.000339198
0.00288142
0.00024851
0.00278541
0.000178113
0.00271676
0.000124969
0.00266847
8.58175e-05
0.00263501
5.76514e-05
0.00261215
3.77759e-05
0.00259681
2.39773e-05
0.00258668
1.46335e-05
0.00258012
8.44303e-06
0.00257599
4.41592e-06
0.00257347
1.8715e-06
0.00257202
3.26019e-07
0.00257125
-5.5826e-07
0.00257092
-1.01488e-06
0.00257085
-1.20813e-06
0.00257094
-1.24493e-06
0.0025711
-1.17528e-06
0.0025713
-1.0598e-06
0.0025715
-9.19766e-07
0.00257169
-7.71129e-07
0.00257185
-6.26993e-07
0.00257198
-4.89128e-07
0.00257208
-3.59072e-07
0.00257215
-2.36804e-07
-1.03721e-07
0.00326299
9.40755e-05
0.00338996
0.000258162
0.00350609
0.000364291
0.00358801
0.000418297
0.00363942
0.000435085
0.00366222
0.000426334
0.00365811
0.000403161
0.00363378
0.000370865
0.00359681
0.000331233
0.00355166
0.000288989
0.00350151
0.000247733
0.00345157
0.0002061
0.00340548
0.000164659
0.00336558
0.000123835
0.0033334
8.40871e-05
0.00330982
4.59759e-05
0.00329563
9.367e-06
0.00329106
-2.65582e-05
0.00329641
-6.35449e-05
0.00331233
-0.000102551
0.00333968
-0.000144997
0.00337936
-0.000192407
0.0034333
-0.000247633
0.00350384
-0.000312726
0.00359378
-0.00038982
0.00370773
-0.000482114
0.00385127
-0.000591545
0.0040311
-0.000719272
0.00425514
-0.000864957
0.00453222
-0.00102545
0.00487078
-0.00119279
0.00527809
-0.00135316
0.00575125
-0.00147692
0.00625768
-0.00150588
0.00674673
-0.00139419
0.00715909
-0.00111585
0.00745489
-0.000693535
0.00759352
-0.000183458
0.00756369
0.000342722
0.00740891
0.000809175
0.00714638
0.00118313
0.00678539
0.00144969
0.00635374
0.00158781
0.00588599
0.00159849
0.00541371
0.00150447
0.00496278
0.00134227
0.00455935
0.00113989
0.00421801
0.000927548
0.00394159
0.000728467
0.00372557
0.000555222
0.0035613
0.000412777
0.0034391
0.000300311
0.00334986
0.00021421
0.00328574
0.000149944
0.00324021
0.000103183
0.00320822
6.97608e-05
0.00318606
4.61379e-05
0.00317083
2.98619e-05
0.00316044
1.88366e-05
0.00315342
1.14333e-05
0.00314873
6.56263e-06
0.00314563
3.4247e-06
0.00314363
1.44977e-06
0.00314236
2.5006e-07
0.00314159
-4.37998e-07
0.00314114
-7.92836e-07
0.0031409
-9.32275e-07
0.00314079
-9.4977e-07
0.00314075
-8.87851e-07
0.00314077
-7.82631e-07
0.0031408
-6.59395e-07
0.00314084
-5.26698e-07
0.00314087
-3.91508e-07
0.00314089
-2.5812e-07
-1.04588e-07
0.00323334
6.07403e-05
0.00331544
0.000176054
0.00341555
0.000264189
0.00351225
0.000321594
0.00359412
0.000353216
0.00365632
0.000364132
0.00369928
0.000360204
0.00372628
0.000343858
0.00373979
0.000317725
0.00374062
0.000288162
0.00373178
0.000256576
0.00371675
0.00022113
0.00369819
0.000183212
0.0036776
0.000144431
0.00365684
0.000104846
0.00363828
6.45302e-05
0.00362384
2.38132e-05
0.00361484
-1.75644e-05
0.00361219
-6.0885e-05
0.00361687
-0.000107237
0.0036301
-0.000158226
0.0036523
-0.000214608
0.00368464
-0.000279968
0.00372984
-0.000357933
0.00379145
-0.00045142
0.00387426
-0.00056493
0.00398436
-0.000701646
0.00413025
-0.000865164
0.0043233
-0.001058
0.00457805
-0.00128019
0.00491161
-0.00152636
0.00534481
-0.00178636
0.00586284
-0.00199495
0.00638934
-0.00203238
0.00686027
-0.00186511
0.00722466
-0.00148025
0.00743446
-0.000903337
0.00748452
-0.000233514
0.00742721
0.000400029
0.00728374
0.000952651
0.00708366
0.00138321
0.00681947
0.00171388
0.00648043
0.00192685
0.00609774
0.00198118
0.00570196
0.00190025
0.00530762
0.00173661
0.00494087
0.00150664
0.00461881
0.0012496
0.00434915
0.000998135
0.00413124
0.000773132
0.00396025
0.000583768
0.00382939
0.000431167
0.0037314
0.000312201
0.00365947
0.000221875
0.00360723
0.000155424
0.00356977
0.000107223
0.00354334
7.25608e-05
0.00352477
4.84354e-05
0.00351174
3.1871e-05
0.00350268
2.04862e-05
0.00349641
1.28391e-05
0.00349207
7.75831e-06
0.0034891
4.41882e-06
0.00348709
2.26895e-06
0.00348572
9.23503e-07
0.00348482
1.14994e-07
0.00348422
-3.38424e-07
0.00348384
-5.64217e-07
0.00348359
-6.42924e-07
0.00348344
-6.31213e-07
0.00348335
-5.66245e-07
0.00348329
-4.70097e-07
0.00348325
-3.55631e-07
0.00348323
-2.3161e-07
-7.8565e-08
0.00321901
4.17341e-05
0.00327103
0.000124035
0.00334294
0.000192274
0.00342276
0.00024178
0.00350197
0.000274005
0.00357449
0.000291608
0.0036374
0.0002973
0.00368859
0.000292667
0.00372705
0.000279263
0.00375457
0.000260637
0.00377326
0.00023789
0.00378447
0.000209922
0.00378862
0.000179062
0.00378688
0.000146168
0.00378148
0.000110251
0.00377392
7.2092e-05
0.00376555
3.21811e-05
0.00375781
-9.82231e-06
0.00375188
-5.49592e-05
0.00374886
-0.000104214
0.0037499
-0.000159267
0.00375584
-0.000220544
0.00376777
-0.000291898
0.00378895
-0.000379115
0.00382277
-0.00048524
0.00387287
-0.000615025
0.00394594
-0.000774719
0.0040519
-0.000971125
0.00420513
-0.00121123
0.00442594
-0.00150101
0.00474188
-0.0018423
0.00518513
-0.00222961
0.00564841
-0.00245823
0.00601585
-0.00239982
0.00625838
-0.00210764
0.0062381
-0.00145997
0.00596488
-0.000630119
0.00578535
-5.39764e-05
0.00580742
0.000377958
0.0058881
0.000871965
0.00597536
0.00129595
0.00597245
0.00171678
0.00586817
0.00203113
0.0056914
0.00215795
0.00546592
0.00212573
0.00520379
0.00199875
0.00493344
0.00177699
0.00467743
0.00150562
0.00445247
0.0012231
0.00426589
0.00095971
0.00411653
0.000733129
0.00400002
0.000547671
0.00391092
0.000401302
0.00384383
0.000288972
0.00379408
0.00020517
0.00375787
0.000143435
0.00373193
9.84975e-05
0.00371334
6.7029e-05
0.00370005
4.51609e-05
0.00369071
2.98294e-05
0.00368406
1.94869e-05
0.00367935
1.24687e-05
0.00367603
7.7355e-06
0.0036737
4.59653e-06
0.00367207
2.55448e-06
0.00367093
1.25408e-06
0.00367014
4.52915e-07
0.00366959
-1.54236e-08
0.00366921
-2.64394e-07
0.00366895
-3.70983e-07
0.00366878
-3.87262e-07
0.00366865
-3.46312e-07
0.00366857
-2.69564e-07
0.0036685
-1.69132e-07
-3.32741e-08
0.00321194
2.97968e-05
0.00324667
8.93065e-05
0.00329801
0.000140926
0.003359
0.000180796
0.00342409
0.00020891
0.00348915
0.000226553
0.00355127
0.000235176
0.00360794
0.000236004
0.00365704
0.000230155
0.0036985
0.000219186
0.00373261
0.000203779
0.00375874
0.00018379
0.00377737
0.000160426
0.00378951
0.000134034
0.00379551
0.000104245
0.00379688
7.07305e-05
0.00379498
3.40737e-05
0.00379065
-5.48393e-06
0.00378438
-4.86975e-05
0.00377694
-9.6769e-05
0.00376899
-0.000151321
0.00376209
-0.000213639
0.00375777
-0.000287579
0.00375676
-0.000378105
0.00376095
-0.000489426
0.00377423
-0.000628309
0.00380281
-0.000803298
0.00385651
-0.00102482
0.00395068
-0.00130541
0.00410936
-0.00165969
0.0043679
-0.00210083
0.00472313
-0.00258484
0.00491229
-0.00264739
0.00463225
-0.00211978
0.00293437
-0.000546928
0.00128231
4.83345e-19
0.000563508
-1.66022e-19
0.000511917
-4.8646e-19
0.000983413
-6.35403e-19
0.00205809
-8.31191e-19
0.00322397
0.000249382
0.00393574
0.001005
0.00437966
0.00158722
0.00459569
0.00194193
0.00466609
0.00205533
0.00464294
0.00202189
0.00455614
0.00186379
0.00443653
0.00162523
0.0043088
0.00135082
0.00419133
0.00107718
0.00409119
0.000833275
0.00400958
0.000629277
0.0039453
0.000465581
0.00389589
0.000338384
0.00385878
0.00024228
0.00383135
0.000170872
0.00381116
0.000118687
0.00379659
8.15919e-05
0.00378643
5.53201e-05
0.00377912
3.71458e-05
0.00377365
2.49521e-05
0.00376969
1.64346e-05
0.00376682
1.06067e-05
0.00376475
6.66523e-06
0.00376325
4.04834e-06
0.00376218
2.33071e-06
0.0037614
1.22817e-06
0.00376084
5.44145e-07
0.00376044
1.39737e-07
0.00376015
-7.96506e-08
0.00375994
-1.77771e-07
0.00375979
-1.95562e-07
0.00375968
-1.62077e-07
0.0037596
-9.20256e-08
1.68112e-08
0.0032083
2.14968e-05
0.00323307
6.45347e-05
0.00327106
0.00010294
0.00331805
0.000133807
0.00337038
0.000156577
0.00342508
0.000171858
0.00347975
0.000180504
0.0035324
0.000183348
0.00358141
0.00018115
0.00362585
0.000174746
0.00366503
0.0001646
0.00369804
0.000150778
0.0037248
0.000133666
0.00374564
0.000113198
0.0037604
8.94851e-05
0.00376898
6.21495e-05
0.00377186
3.11877e-05
0.0037698
-3.41836e-06
0.00376323
-4.21303e-05
0.0037524
-8.59416e-05
0.00373745
-0.000136368
0.00371915
-0.000195342
0.0036977
-0.00026612
0.00367295
-0.000353354
0.00364603
-0.000462507
0.0036189
-0.000601185
0.00359526
-0.000779648
0.00358185
-0.00101141
0.00359026
-0.00131382
0.00363924
-0.00170867
0.00374697
-0.00220856
0.0037562
-0.00259407
0.00324777
-0.00213896
0.00073148
1.12169e-18
1.72121e-18
3.48282e-19
1.01999e-18
-1.92267e-19
4.47265e-19
-3.10354e-20
3.69448e-19
7.26125e-21
4.70683e-19
3.8959e-20
1.11748e-18
3.41096e-20
0.000457886
-4.28018e-19
0.00178415
5.13011e-05
0.00261654
0.000754824
0.00318703
0.00137143
0.00353965
0.00170271
0.00376409
0.00179746
0.00389224
0.00173563
0.00395057
0.0015669
0.00396332
0.00133807
0.00395145
0.00108905
0.00392957
0.000855152
0.00390572
0.000653131
0.00388358
0.000487719
0.00386455
0.000357414
0.00384917
0.000257655
0.00383722
0.000182822
0.00382789
0.000128023
0.00382074
8.8739e-05
0.00381557
6.04864e-05
0.00381195
4.07731e-05
0.00380932
2.75786e-05
0.00380732
1.84309e-05
0.00380572
1.22065e-05
0.00380447
7.91566e-06
0.00380351
5.01448e-06
0.00380277
3.07018e-06
0.0038022
1.79163e-06
0.00380177
9.74283e-07
0.00380145
4.67494e-07
0.0038012
1.6868e-07
0.00380101
8.86451e-09
0.00380087
-5.66681e-08
0.00380077
-6.13191e-08
0.0038007
-2.07799e-08
5.79469e-08
0.00320627
1.52304e-05
0.00322508
4.57183e-05
0.00325462
7.34051e-05
0.00329215
9.62779e-05
0.00333505
0.00011368
0.0033811
0.000125801
0.00342848
0.000133127
0.00347556
0.00013627
0.00352094
0.000135768
0.00356361
0.000132079
0.0036027
0.000125504
0.00363739
0.000116094
0.00366716
0.000103896
0.00369156
8.87985e-05
0.00371028
7.07644e-05
0.00372287
4.95606e-05
0.003729
2.5058e-05
0.00372857
-2.98919e-06
0.00372145
-3.5015e-05
0.00370739
-7.18808e-05
0.00368596
-0.000114937
0.00365672
-0.000166099
0.00361886
-0.000228264
0.00357116
-0.000305653
0.00351254
-0.000403886
0.00344207
-0.000530704
0.0033593
-0.000696877
0.00326499
-0.000917106
0.00316197
-0.00121079
0.0030521
-0.0015988
0.00289508
-0.00205154
0.002377
-0.00207599
5.19669e-18
-0.000343025
1.35648e-18
-7.56088e-19
1.52306e-19
-6.11214e-20
1.40149e-21
3.8768e-23
3.7894e-21
2.0816e-23
1.1131e-20
2.38184e-22
3.1569e-20
4.04835e-22
2.08313e-19
1.2044e-21
6.97912e-19
2.70955e-21
0.00017228
-3.24889e-19
0.00129784
8.93469e-05
0.00193841
0.000730865
0.00244389
0.00119722
0.00283364
0.00140771
0.00313151
0.00143777
0.0033517
0.00134671
0.00350822
0.00118155
0.0036146
0.000982668
0.00368558
0.000784168
0.00373285
0.000605861
0.00376415
0.000456417
0.00378474
0.000336823
0.00379814
0.000244257
0.00380665
0.000174312
0.003812
0.000122678
0.00381534
8.53992e-05
0.00381717
5.86559e-05
0.00381809
3.98528e-05
0.00381875
2.6919e-05
0.00381913
1.80424e-05
0.00381926
1.20818e-05
0.00381922
7.95423e-06
0.0038191
5.13544e-06
0.00381893
3.24194e-06
0.00381873
1.98726e-06
0.00381854
1.16761e-06
0.00381836
6.42983e-07
0.00381821
3.19617e-07
0.00381809
1.3346e-07
0.00381799
4.17889e-08
0.00381792
1.20587e-08
0.00381787
2.97011e-08
8.00433e-08
0.00320505
1.01767e-05
0.00322023
3.05386e-05
0.00324441
4.92298e-05
0.00327573
6.49588e-05
0.00331223
7.71821e-05
0.00335212
8.59051e-05
0.00339386
9.13857e-05
0.00343614
9.39941e-05
0.00347778
9.41269e-05
0.00351779
9.20735e-05
0.00355531
8.79846e-05
0.00358951
8.18895e-05
0.00361967
7.37355e-05
0.00364509
6.33796e-05
0.00366518
5.06769e-05
0.0036793
3.54384e-05
0.00368666
1.76984e-05
0.00368653
-2.85703e-06
0.00367822
-2.6706e-05
0.00366086
-5.4522e-05
0.00363334
-8.74173e-05
0.00359422
-0.000126973
0.0035415
-0.000175547
0.00347245
-0.000236598
0.00338352
-0.000314959
0.00327023
-0.000417412
0.00312691
-0.000553551
0.00294644
-0.000736637
0.00271987
-0.000984221
0.00242969
-0.00130861
0.0020133
-0.00163515
0.000627461
-0.000986776
2.37309e-18
1.30889e-18
1.74636e-19
-4.32303e-20
3.18161e-22
1.20127e-23
6.66032e-22
9.02172e-24
1.59246e-21
2.64321e-23
3.50837e-21
7.76633e-23
9.10619e-21
1.8299e-22
2.9462e-20
4.33778e-22
1.96729e-19
-5.62019e-23
6.56273e-19
4.9881e-21
0.000448823
-1.93608e-19
0.00115591
0.000245359
0.00163176
0.000721376
0.00207196
0.000967513
0.00245918
0.00105054
0.00278783
0.00101806
0.00305572
0.000913659
0.00326519
0.000773204
0.00342367
0.00062569
0.00354115
0.000488374
0.00362661
0.000370965
0.00368788
0.000275548
0.00373132
0.000200817
0.0037617
0.000143934
0.00378268
0.000101694
0.00379709
7.09916e-05
0.00380679
4.89562e-05
0.0038132
3.34438e-05
0.00381745
2.2668e-05
0.00382024
1.52474e-05
0.0038221
1.02197e-05
0.0038233
6.75868e-06
0.00382403
4.40649e-06
0.00382443
2.84282e-06
0.00382463
1.78547e-06
0.00382471
1.08429e-06
0.00382473
6.30108e-07
0.0038247
3.46089e-07
0.00382466
1.76067e-07
0.00382461
8.55434e-08
0.00382458
4.72095e-08
0.00382456
5.15595e-08
7.9304e-08
0.00320433
5.84565e-06
0.00321733
1.75408e-05
0.00323821
2.83481e-05
0.00326562
3.75479e-05
0.00329801
4.47925e-05
0.00333388
5.00405e-05
0.00337185
5.34134e-05
0.00341074
5.51037e-05
0.00344952
5.53465e-05
0.00348728
5.43127e-05
0.00352319
5.20763e-05
0.00355643
4.86464e-05
0.0035862
4.39688e-05
0.00361165
3.79289e-05
0.00363195
3.0379e-05
0.00364624
2.11459e-05
0.00365371
1.02308e-05
0.00365307
-2.21321e-06
0.00364323
-1.68752e-05
0.00362285
-3.41341e-05
0.00359019
-5.47577e-05
0.00354298
-7.97652e-05
0.00347813
-0.000110696
0.00339138
-0.000149841
0.00327689
-0.000200474
0.00312674
-0.000267253
0.00293002
-0.000356828
0.00267184
-0.000478461
0.00233187
-0.000644251
0.00188198
-0.000858717
0.00128953
-0.0010427
5.51474e-18
-0.000278312
5.96955e-19
-4.49151e-19
1.14187e-22
4.78115e-24
1.99148e-22
-3.61634e-25
4.57372e-22
-1.14823e-26
9.95236e-22
1.75715e-23
2.16911e-21
2.83919e-23
5.203e-21
4.7723e-23
1.50833e-20
4.23299e-23
5.67269e-20
-1.66678e-22
2.33031e-19
8.30238e-22
8.35786e-19
4.21223e-20
0.000777342
4.9078e-05
0.00114142
0.0003573
0.00155525
0.000553678
0.0019723
0.000633486
0.00235961
0.000630752
0.0026981
0.000575168
0.00297945
0.000491852
0.00320336
0.000401782
0.0033758
0.000315937
0.00350533
0.000241431
0.0036007
0.000180182
0.00366972
0.000131791
0.00371891
9.47476e-05
0.00375348
6.71188e-05
0.00377752
4.69508e-05
0.00379402
3.24639e-05
0.00380522
2.22341e-05
0.00381279
1.51052e-05
0.00381785
1.01861e-05
0.00382124
6.83105e-06
0.00382346
4.53848e-06
0.00382489
2.97545e-06
0.0038258
1.92949e-06
0.00382636
1.2258e-06
0.00382669
7.58767e-07
0.00382686
4.541e-07
0.00382695
2.60739e-07
0.00382698
1.41536e-07
0.00382699
7.62111e-08
0.00382699
4.56903e-08
0.003827
4.34464e-08
5.64737e-08
0.00320394
1.90769e-06
0.00321576
5.71797e-06
0.00323485
9.25881e-06
0.0032601
1.22969e-05
0.0032902
1.46971e-05
0.00332379
1.64477e-05
0.00335962
1.75858e-05
0.00339655
1.81701e-05
0.00343362
1.82765e-05
0.00346997
1.79619e-05
0.0035048
1.72494e-05
0.00353731
1.61406e-05
0.00356666
1.46148e-05
0.00359196
1.26339e-05
0.0036122
1.01369e-05
0.00362627
7.0712e-06
0.00363326
3.24887e-06
0.00363197
-9.24585e-07
0.00362089
-5.7979e-06
0.00359838
-1.16231e-05
0.00356228
-1.86566e-05
0.00350973
-2.72185e-05
0.00343688
-3.78408e-05
0.00333837
-5.13285e-05
0.00320674
-6.88406e-05
0.00303152
-9.20358e-05
0.00279798
-0.000123286
0.00248544
-0.00016592
0.00206575
-0.000224551
0.00150879
-0.000301758
0.000817628
-0.000351539
3.90694e-18
-4.17445e-05
2.57351e-19
-7.6528e-20
8.57341e-23
-1.49303e-25
1.70058e-22
-2.62799e-26
3.77091e-22
9.86139e-24
6.82276e-22
1.20366e-24
1.48968e-21
3.63699e-24
3.5688e-21
1.21766e-23
1.04596e-20
3.95697e-23
3.67584e-20
-4.84115e-23
1.63328e-19
-1.9334e-22
5.69608e-19
4.80912e-21
0.000624573
5.5653e-06
0.000879539
0.000102334
0.00125458
0.000178631
0.00167702
0.000211045
0.00209426
0.00021352
0.00247307
0.00019635
0.00279642
0.000168504
0.00305992
0.000138285
0.00326652
0.000109338
0.0034241
8.38424e-05
0.00354161
6.26794e-05
0.00362749
4.59061e-05
0.00368919
3.30475e-05
0.00373287
2.34393e-05
0.00376341
1.64129e-05
0.00378451
1.13624e-05
0.00379895
7.79086e-06
0.00380876
5.29886e-06
0.00381537
3.57788e-06
0.0038198
2.40128e-06
0.00382274
1.59845e-06
0.00382466
1.05158e-06
0.0038259
6.84009e-07
0.00382669
4.37328e-07
0.00382718
2.73011e-07
0.00382747
1.64461e-07
0.00382763
9.6387e-08
0.00382772
5.3811e-08
0.00382777
2.95942e-08
0.00382779
1.73961e-08
0.00382782
1.55424e-08
1.95751e-08
0.00320381
-1.90046e-06
0.00321524
-5.70994e-06
0.00323374
-9.24539e-06
0.00325832
-1.22788e-05
0.00328769
-1.46731e-05
0.00332055
-1.64173e-05
0.00335569
-1.75492e-05
0.00339199
-1.81282e-05
0.00342849
-1.82311e-05
0.00346437
-1.79154e-05
0.00349882
-1.72049e-05
0.00353107
-1.61014e-05
0.00356027
-1.45841e-05
0.00358552
-1.26145e-05
0.00360578
-1.01308e-05
0.00361993
-7.07885e-06
0.00362645
-3.27034e-06
0.00362464
8.92984e-07
0.00361308
5.75828e-06
0.00358988
1.15783e-05
0.00355261
1.86099e-05
0.00349822
2.7174e-05
0.00342258
3.78025e-05
0.00331995
5.13009e-05
0.00318229
6.88276e-05
0.00299821
9.20392e-05
0.00275163
0.000123303
0.00241978
0.000165926
0.00197073
0.000224505
0.00136737
0.000301601
0.000664529
0.0003513
3.37095e-18
4.17239e-05
1.91468e-19
7.66196e-20
7.53841e-23
1.50908e-25
1.74302e-22
6.95879e-26
3.03059e-22
-1.23139e-23
6.35317e-22
-1.27675e-24
1.40362e-21
-3.65431e-24
3.02905e-21
-1.21713e-23
7.92353e-21
-3.95537e-23
2.62682e-20
4.84518e-23
1.48578e-19
5.49755e-22
4.85847e-19
-6.19638e-21
0.000592207
-5.58168e-06
0.000797002
-0.000102461
0.0011543
-0.000178665
0.00157631
-0.000210967
0.00200322
-0.000213393
0.0023958
-0.00019623
0.00273271
-0.000168408
0.00300919
-0.000138196
0.0032278
-0.000109273
0.00339544
-8.3792e-05
0.00352076
-6.26448e-05
0.00361255
-4.58846e-05
0.00367863
-3.30358e-05
0.00372551
-2.34343e-05
0.00375833
-1.64116e-05
0.00378105
-1.13625e-05
0.00379664
-7.7909e-06
0.00380723
-5.298e-06
0.00381439
-3.57581e-06
0.00381919
-2.39824e-06
0.00382238
-1.59471e-06
0.00382448
-1.04759e-06
0.00382584
-6.80051e-07
0.00382671
-4.33685e-07
0.00382726
-2.69869e-07
0.00382758
-1.62054e-07
0.00382777
-9.48669e-08
0.00382788
-5.33599e-08
0.00382794
-3.04054e-08
0.00382798
-1.96129e-08
0.00382801
-1.90352e-08
-2.50052e-08
0.00320394
-5.83852e-06
0.00321576
-1.75329e-05
0.00323485
-2.83348e-05
0.0032601
-3.753e-05
0.0032902
-4.47688e-05
0.00332379
-5.00105e-05
0.00335962
-5.33773e-05
0.00339655
-5.50625e-05
0.00343362
-5.53019e-05
0.00346998
-5.42673e-05
0.00350481
-5.2033e-05
0.00353731
-4.86085e-05
0.00356667
-4.39394e-05
0.00359196
-3.79106e-05
0.00361221
-3.03736e-05
0.00362628
-2.11539e-05
0.00363326
-1.02516e-05
0.00363198
2.18175e-06
0.0036209
1.68356e-05
0.00359839
3.40891e-05
0.00356229
5.4711e-05
0.00350974
7.97201e-05
0.00343689
0.000110657
0.00333838
0.000149811
0.00320675
0.000200457
0.00303155
0.000267251
0.00279802
0.000356836
0.00248548
0.000478462
0.00206578
0.000644204
0.0015088
0.000858579
0.000817608
0.0010425
3.90715e-18
0.000278271
2.5739e-19
4.48944e-19
8.52706e-23
-4.77265e-24
1.67766e-22
3.9654e-25
3.76373e-22
1.07156e-25
6.82276e-22
-1.75762e-23
1.48971e-21
-2.83711e-23
3.56901e-21
-4.76852e-23
1.04523e-20
-4.2236e-23
3.69698e-20
1.66989e-22
1.62977e-19
-5.45913e-22
5.69468e-19
-4.20688e-20
0.000624539
-4.906e-05
0.000879373
-0.000357297
0.00125439
-0.000553683
0.00167687
-0.000633445
0.00209415
-0.000630681
0.00247301
-0.000575087
0.00279639
-0.000491786
0.0030599
-0.000401712
0.00326651
-0.000315882
0.00342411
-0.000241387
0.00354161
-0.00018015
0.0036275
-0.000131771
0.0036892
-9.4736e-05
0.00373288
-6.71132e-05
0.00376341
-4.69484e-05
0.00378451
-3.24628e-05
0.00379895
-2.2233e-05
0.00380876
-1.51034e-05
0.00381537
-1.01832e-05
0.00381979
-6.82744e-06
0.00382273
-4.53437e-06
0.00382466
-2.97122e-06
0.0038259
-1.92539e-06
0.00382669
-1.22212e-06
0.00382718
-7.55676e-07
0.00382747
-4.51751e-07
0.00382763
-2.59293e-07
0.00382772
-1.41173e-07
0.00382777
-7.70707e-08
0.00382779
-4.79691e-08
0.00382782
-4.70059e-08
-6.19307e-08
0.00320433
-1.01698e-05
0.00321733
-3.05309e-05
0.00323821
-4.92169e-05
0.00326562
-6.49414e-05
0.00329801
-7.7159e-05
0.00333388
-8.5876e-05
0.00337185
-9.13507e-05
0.00341074
-9.39543e-05
0.00344953
-9.4084e-05
0.00348729
-9.20302e-05
0.0035232
-8.79436e-05
0.00355645
-8.18539e-05
0.00358622
-7.37082e-05
0.00361167
-6.33629e-05
0.00363197
-5.06726e-05
0.00364626
-3.54468e-05
0.00365373
-1.77191e-05
0.00365308
2.82578e-06
0.00364325
2.66666e-05
0.00362287
5.44774e-05
0.00359021
8.73706e-05
0.003543
0.000126928
0.00347815
0.000175506
0.0033914
0.000236564
0.00327693
0.000314935
0.00312678
0.000417398
0.00293008
0.000553545
0.00267191
0.000736626
0.00233194
0.000984175
0.00188202
0.0013085
0.00128952
0.001635
5.51484e-18
0.000986725
5.97227e-19
-1.30894e-18
1.14154e-22
4.32298e-20
1.9916e-22
-1.20076e-23
4.57366e-22
-8.97834e-24
9.95278e-22
-2.64083e-23
2.16921e-21
-7.7607e-23
5.2033e-21
-1.8286e-22
1.5084e-20
-4.33553e-22
5.67236e-20
5.74703e-23
2.33231e-19
-5.03486e-21
8.35803e-19
1.93614e-19
0.000777355
-0.000245355
0.00114139
-0.000721337
0.00155518
-0.00096747
0.00197224
-0.00105051
0.00235958
-0.00101803
0.0026981
-0.000913605
0.00297946
-0.000773147
0.00320338
-0.00062563
0.00337582
-0.000488318
0.00350535
-0.00037092
0.00360071
-0.000275516
0.00366974
-0.000200796
0.00371892
-0.00014392
0.00375349
-0.000101686
0.00377753
-7.09864e-05
0.00379402
-4.89523e-05
0.00380523
-3.34403e-05
0.00381279
-2.2664e-05
0.00381785
-1.5243e-05
0.00382124
-1.0215e-05
0.00382346
-6.75386e-06
0.00382489
-4.40182e-06
0.0038258
-2.83847e-06
0.00382636
-1.7817e-06
0.00382668
-1.08125e-06
0.00382686
-6.27892e-07
0.00382695
-3.44816e-07
0.00382698
-1.75878e-07
0.00382699
-8.65317e-08
0.00382699
-4.95891e-08
0.003827
-5.5196e-08
-8.4737e-08
0.00320505
-1.52238e-05
0.00322023
-4.5711e-05
0.00324441
-7.33928e-05
0.00327573
-9.62613e-05
0.00331223
-0.000113658
0.00335213
-0.000125773
0.00339387
-0.000133094
0.00343615
-0.000136233
0.00347779
-0.000135728
0.0035178
-0.000132039
0.00355532
-0.000125466
0.00358953
-0.000116062
0.0036197
-0.000103871
0.00364512
-8.8784e-05
0.00366521
-7.07615e-05
0.00367933
-4.95698e-05
0.00368669
-2.50788e-05
0.00368656
2.95848e-06
0.00367825
3.49766e-05
0.00366089
7.18372e-05
0.00363337
0.000114891
0.00359424
0.000166054
0.00354153
0.000228221
0.00347248
0.000305615
0.00338356
0.000403855
0.00327028
0.000530678
0.00312698
0.000696853
0.00294653
0.000917076
0.00271996
0.00121074
0.00242976
0.0015987
0.00201332
0.00205144
0.000627465
0.00207596
2.37312e-18
0.000343029
1.74639e-19
7.56154e-19
3.18313e-22
6.11148e-20
6.66107e-22
-3.87433e-23
1.59256e-21
-2.07747e-23
3.50875e-21
-2.37964e-22
9.10785e-21
-4.04576e-22
2.94652e-20
-1.20291e-21
1.96797e-19
-2.73145e-21
6.56286e-19
3.24898e-19
0.00044884
-8.93636e-05
0.00115595
-0.000730883
0.00163181
-0.00119719
0.00207201
-0.00140767
0.00245924
-0.00143774
0.00278789
-0.00134668
0.00305578
-0.0011815
0.00326524
-0.0009826
0.00342371
-0.000784099
0.00354119
-0.000605799
0.00362663
-0.000456369
0.00368791
-0.000336789
0.00373134
-0.000244233
0.00376172
-0.000174295
0.0037827
-0.000122666
0.0037971
-8.53898e-05
0.0038068
-5.86478e-05
0.0038132
-3.98458e-05
0.00381745
-2.69123e-05
0.00382024
-1.8036e-05
0.0038221
-1.20758e-05
0.0038233
-7.9485e-06
0.00382403
-5.1302e-06
0.00382443
-3.23731e-06
0.00382463
-1.98339e-06
0.00382471
-1.16462e-06
0.00382472
-6.40937e-07
0.0038247
-3.18572e-07
0.00382465
-1.33498e-07
0.00382461
-4.29964e-08
0.00382458
-1.45554e-08
0.00382455
-3.34158e-08
-8.53945e-08
0.00320627
-2.14907e-05
0.00322508
-6.45278e-05
0.00325462
-0.000102929
0.00329215
-0.000133792
0.00333505
-0.000156557
0.00338111
-0.000171832
0.00342849
-0.000180474
0.00347557
-0.000183314
0.00352096
-0.000181113
0.00356363
-0.00017471
0.00360273
-0.000164566
0.00363741
-0.000150749
0.00366719
-0.000133645
0.00369159
-0.000113186
0.00371031
-8.94841e-05
0.0037229
-6.21598e-05
0.00372903
-3.12084e-05
0.0037286
3.38862e-06
0.00372149
4.20935e-05
0.00370742
8.58999e-05
0.00368599
0.000136324
0.00365675
0.000195298
0.00361889
0.000266078
0.0035712
0.000353314
0.00351258
0.000462469
0.00344211
0.000601149
0.00335936
0.00077961
0.00326507
0.00101136
0.00316205
0.00131375
0.00305217
0.00170858
0.00289512
0.00220849
0.00237701
0.00259406
5.19658e-18
0.00213898
1.35648e-18
-1.12154e-18
1.523e-19
-3.47923e-19
1.40169e-21
1.92291e-19
3.78997e-21
3.10351e-20
1.11331e-20
-7.2637e-21
3.15723e-20
-3.89642e-20
2.08358e-19
-3.40932e-20
6.97995e-19
4.28042e-19
0.000172268
-5.129e-05
0.00129791
-0.000754925
0.00193846
-0.00137143
0.00244396
-0.0017027
0.00283373
-0.00179743
0.00313158
-0.0017356
0.00335176
-0.00156686
0.00350826
-0.00133801
0.00361463
-0.00108897
0.00368561
-0.000855079
0.00373288
-0.00065307
0.00376418
-0.000487674
0.00378477
-0.000357381
0.00379817
-0.000257629
0.00380668
-0.000182802
0.00381202
-0.000128007