/*--------------------------------*- C++ -*----------------------------------*\
| =========                 |                                                 |
| \\      /  F ield         | OpenFOAM: The Open Source CFD Toolbox           |
|  \\    /   O peration     | Version:  2206                                  |
|   \\  /    A nd           | Website:  www.openfoam.com                      |
|    \\/     M anipulation  |                                                 |
\*---------------------------------------------------------------------------*/
FoamFile
{
    version     2.0;
    format      ascii;
    arch        "LSB;label=32;scalar=64";
    class       volVectorField;
    location    "0.6";
    object      U;
}
// * * * * * * * * * * * * * * * * * * * * * * * * * * * * * * * * * * * * * //

dimensions      [0 1 -1 0 0 0 0];

internalField   nonuniform List<vector> 
1875
(
(0.792654 0.020752 0)
(0.749498 0.0857848 0)
(0.648153 0.0835333 0)
(0.515174 0.0487326 0)
(0.419006 0.0246661 0)
(0.355865 0.0133865 0)
(0.311847 0.00734262 0)
(0.280296 0.00392807 0)
(0.257832 0.00209139 0)
(0.24174 0.00112288 0)
(0.230098 0.000576506 0)
(0.221729 0.000233531 0)
(0.215943 -2.143e-05 0)
(0.212306 -0.000251526 0)
(0.210627 -0.000476223 0)
(0.210639 -0.000728585 0)
(0.212038 -0.00102358 0)
(0.21495 -0.00134077 0)
(0.219447 -0.00171164 0)
(0.225626 -0.00216301 0)
(0.233708 -0.00271736 0)
(0.244014 -0.00340282 0)
(0.256984 -0.00425454 0)
(0.273188 -0.00530845 0)
(0.293325 -0.00659794 0)
(0.318196 -0.00814238 0)
(0.348663 -0.00993711 0)
(0.385574 -0.0119338 0)
(0.429627 -0.0140095 0)
(0.481151 -0.0159318 0)
(0.539802 -0.0173267 0)
(0.604143 -0.0176545 0)
(0.671271 -0.0162082 0)
(0.736545 -0.012257 0)
(0.793351 -0.00568306 0)
(0.834301 0.00250155 0)
(0.847721 0.0108083 0)
(0.838294 0.0191847 0)
(0.802918 0.0257865 0)
(0.744585 0.0287192 0)
(0.670165 0.0276564 0)
(0.589166 0.0238008 0)
(0.510369 0.0187382 0)
(0.438709 0.0149239 0)
(0.380746 0.0129065 0)
(0.331952 0.00741603 0)
(0.293683 0.00491538 0)
(0.264444 0.00331315 0)
(0.242508 0.00215755 0)
(0.226446 0.00132125 0)
(0.215002 0.000722465 0)
(0.207085 0.000302469 0)
(0.201807 2.18929e-05 0)
(0.198453 -0.000155989 0)
(0.19645 -0.000257172 0)
(0.195372 -0.00030407 0)
(0.194904 -0.000316067 0)
(0.194829 -0.000308072 0)
(0.194975 -0.000283064 0)
(0.195242 -0.000250403 0)
(0.195554 -0.000217035 0)
(0.195875 -0.000183551 0)
(0.196182 -0.000153776 0)
(0.196461 -0.000126561 0)
(0.196707 -0.000103914 0)
(0.196919 -8.45957e-05 0)
(0.197097 -6.78536e-05 0)
(0.197245 -5.41274e-05 0)
(0.197366 -4.26694e-05 0)
(0.197463 -3.31591e-05 0)
(0.19754 -2.53049e-05 0)
(0.197599 -1.87503e-05 0)
(0.197643 -1.31158e-05 0)
(0.197674 -8.13246e-06 0)
(0.197692 -3.86401e-06 0)
(1.01388 0.122246 0)
(1.051 0.187691 0)
(1.03804 0.178881 0)
(0.988905 0.157937 0)
(0.924584 0.129223 0)
(0.856747 0.097885 0)
(0.795842 0.0717883 0)
(0.742771 0.0522745 0)
(0.698472 0.0382141 0)
(0.662602 0.0280073 0)
(0.634164 0.020377 0)
(0.612133 0.0144654 0)
(0.595609 0.00966229 0)
(0.583883 0.00557457 0)
(0.576421 0.00199725 0)
(0.572844 -0.00107301 0)
(0.572583 -0.00383765 0)
(0.575472 -0.00677865 0)
(0.581528 -0.00983415 0)
(0.590806 -0.0131531 0)
(0.603535 -0.01693 0)
(0.62012 -0.0213691 0)
(0.641153 -0.0266929 0)
(0.667437 -0.0331195 0)
(0.699965 -0.0408418 0)
(0.73989 -0.0499954 0)
(0.788471 -0.0606188 0)
(0.84699 -0.0725743 0)
(0.916607 -0.0854373 0)
(0.998118 -0.0983615 0)
(1.09162 -0.10994 0)
(1.19605 -0.118078 0)
(1.30846 -0.120006 0)
(1.42392 -0.112337 0)
(1.53429 -0.0920413 0)
(1.62808 -0.0579193 0)
(1.69341 -0.0122397 0)
(1.71702 0.0316507 0)
(1.70136 0.0760593 0)
(1.64304 0.114174 0)
(1.54648 0.138676 0)
(1.42216 0.146911 0)
(1.28382 0.141069 0)
(1.14369 0.125335 0)
(1.01502 0.105095 0)
(0.903523 0.0844765 0)
(0.81137 0.0660095 0)
(0.737971 0.0502798 0)
(0.681332 0.0373763 0)
(0.638766 0.0271227 0)
(0.607512 0.0191906 0)
(0.585055 0.0131999 0)
(0.569257 0.0087773 0)
(0.558385 0.00559656 0)
(0.551074 0.00337286 0)
(0.546282 0.00185931 0)
(0.54325 0.000860272 0)
(0.541408 0.000228148 0)
(0.540345 -0.000139515 0)
(0.539804 -0.000336588 0)
(0.539591 -0.000428944 0)
(0.539578 -0.000453774 0)
(0.539671 -0.000440877 0)
(0.539825 -0.000405177 0)
(0.539997 -0.000359225 0)
(0.54017 -0.000309494 0)
(0.540334 -0.00026141 0)
(0.540481 -0.000217345 0)
(0.540607 -0.0001776 0)
(0.540714 -0.000142444 0)
(0.540802 -0.000111776 0)
(0.540871 -8.48984e-05 0)
(0.540923 -6.10888e-05 0)
(0.54096 -3.93749e-05 0)
(0.540983 -1.83331e-05 0)
(1.01267 0.0739858 0)
(1.05983 0.148414 0)
(1.09681 0.166809 0)
(1.10907 0.163922 0)
(1.10269 0.155202 0)
(1.08518 0.140306 0)
(1.059 0.120271 0)
(1.02686 0.0991148 0)
(0.99298 0.080005 0)
(0.960932 0.0637132 0)
(0.932284 0.0499399 0)
(0.907676 0.0381933 0)
(0.887303 0.0279533 0)
(0.87122 0.0188515 0)
(0.859361 0.0106598 0)
(0.851611 0.00328466 0)
(0.847797 -0.00334547 0)
(0.847594 -0.00977714 0)
(0.851002 -0.0164333 0)
(0.85808 -0.0234308 0)
(0.868988 -0.0311168 0)
(0.884044 -0.0398893 0)
(0.903752 -0.0502008 0)
(0.928864 -0.0625018 0)
(0.960296 -0.0771677 0)
(0.999203 -0.0944916 0)
(1.04696 -0.114652 0)
(1.10512 -0.137553 0)
(1.17528 -0.162634 0)
(1.25898 -0.188638 0)
(1.35736 -0.213349 0)
(1.47069 -0.233277 0)
(1.59775 -0.243511 0)
(1.73412 -0.23751 0)
(1.87167 -0.209094 0)
(1.99716 -0.155197 0)
(2.0951 -0.0770179 0)
(2.15385 0.0130643 0)
(2.16531 0.0964828 0)
(2.12989 0.177106 0)
(2.0491 0.240335 0)
(1.93197 0.276809 0)
(1.79028 0.286432 0)
(1.63632 0.27326 0)
(1.48143 0.243401 0)
(1.33855 0.205617 0)
(1.21419 0.166733 0)
(1.11097 0.13071 0)
(1.02879 0.0995343 0)
(0.965469 0.0738649 0)
(0.917955 0.0535311 0)
(0.883064 0.0379172 0)
(0.857924 0.0262378 0)
(0.840122 0.0177092 0)
(0.827714 0.0116289 0)
(0.819185 0.00738068 0)
(0.813416 0.00447109 0)
(0.809581 0.00253692 0)
(0.807077 0.00128349 0)
(0.80548 0.000490976 0)
(0.804492 1.26309e-05 0)
(0.80391 -0.000258669 0)
(0.803587 -0.000393535 0)
(0.803429 -0.000440225 0)
(0.803381 -0.000439416 0)
(0.803392 -0.00041519 0)
(0.803436 -0.000371296 0)
(0.803497 -0.000321417 0)
(0.803561 -0.000271317 0)
(0.803623 -0.000223308 0)
(0.803678 -0.000178946 0)
(0.803725 -0.000138188 0)
(0.803761 -0.000100894 0)
(0.803788 -6.64428e-05 0)
(0.803802 -3.00394e-05 0)
(1.00546 0.0376815 0)
(1.0348 0.0955119 0)
(1.07822 0.131229 0)
(1.11186 0.146066 0)
(1.13102 0.147354 0)
(1.14378 0.140342 0)
(1.14529 0.129587 0)
(1.14062 0.11761 0)
(1.13082 0.104188 0)
(1.11757 0.0891225 0)
(1.1022 0.0738459 0)
(1.08627 0.059484 0)
(1.07106 0.0460969 0)
(1.05747 0.0335874 0)
(1.04611 0.0218715 0)
(1.03734 0.010886 0)
(1.03141 0.000531045 0)
(1.02847 -0.00941514 0)
(1.02854 -0.0196471 0)
(1.03183 -0.0303855 0)
(1.03854 -0.0420443 0)
(1.04895 -0.0551307 0)
(1.06341 -0.070317 0)
(1.08278 -0.0882551 0)
(1.10757 -0.109614 1.04956e-33)
(1.13913 -0.134907 -1.03558e-33)
(1.17899 -0.164614 0)
(1.22905 -0.1989 0)
(1.29159 -0.237363 0)
(1.36925 -0.278709 0)
(1.46476 -0.320439 0)
(1.58053 -0.357994 0)
(1.71857 -0.38367 0)
(1.87407 -0.385666 0)
(2.03338 -0.353631 0)
(2.1788 -0.280218 0)
(2.28798 -0.170538 0)
(2.37064 -0.0404203 0)
(2.37597 0.0998727 0)
(2.34821 0.229607 0)
(2.28678 0.33457 0)
(2.18493 0.406145 0)
(2.0577 0.438855 0)
(1.91454 0.435434 0)
(1.76517 0.403517 0)
(1.61819 0.3532 0)
(1.48316 0.294605 0)
(1.36623 0.236103 0)
(1.26986 0.183057 0)
(1.19355 0.138076 0)
(1.13492 0.10171 0)
(1.09093 0.0733408 0)
(1.05856 0.0518278 0)
(1.03515 0.0359048 0)
(1.01846 0.0244036 0)
(1.00668 0.0162402 0)
(0.998467 0.0105292 0)
(0.992814 0.00662992 0)
(0.988946 0.0040173 0)
(0.986319 0.00229013 0)
(0.984556 0.0011756 0)
(0.983387 0.000477867 0)
(0.982621 5.71462e-05 0)
(0.982133 -0.000183205 0)
(0.981832 -0.000306787 0)
(0.981653 -0.000355581 0)
(0.981551 -0.000357528 0)
(0.981502 -0.000336359 0)
(0.981484 -0.000299885 0)
(0.981483 -0.000255807 0)
(0.981492 -0.000210832 0)
(0.981504 -0.000166088 0)
(0.981516 -0.000122692 0)
(0.981525 -8.12401e-05 0)
(0.981527 -3.48607e-05 0)
(1.00293 0.0233432 0)
(1.01939 0.0650474 0)
(1.04989 0.0955311 0)
(1.08327 0.11462 0)
(1.11183 0.123845 0)
(1.13455 0.125316 0)
(1.15073 0.121857 0)
(1.161 0.114354 0)
(1.16816 0.10342 0)
(1.16952 0.092152 0)
(1.16809 0.0814278 0)
(1.16431 0.0698376 0)
(1.15888 0.0574972 0)
(1.15257 0.0444652 0)
(1.14592 0.0311859 0)
(1.13964 0.0182159 0)
(1.13438 0.00559532 0)
(1.13063 -0.00687213 0)
(1.12873 -0.0197179 0)
(1.12899 -0.0332994 0)
(1.13171 -0.048116 0)
(1.13726 -0.0646749 0)
(1.14559 -0.084058 0)
(1.15774 -0.106664 0)
(1.17392 -0.133366 0)
(1.19629 -0.165842 0)
(1.22603 -0.204671 0)
(1.26543 -0.250456 0)
(1.31757 -0.303432 0)
(1.38646 -0.362929 0)
(1.47696 -0.42636 0)
(1.59504 -0.489389 0)
(1.74702 -0.540211 0)
(1.91414 -0.558646 0)
(2.07384 -0.528033 0)
(2.20314 -0.433077 0)
(2.3049 -0.271472 0)
(2.34173 -0.0811704 0)
(2.33726 0.106232 0)
(2.30447 0.27122 0)
(2.25083 0.395427 0)
(2.18201 0.489423 0)
(2.08465 0.54699 0)
(1.96805 0.559581 0)
(1.84399 0.533977 0)
(1.71883 0.484236 0)
(1.59813 0.417753 0)
(1.48936 0.344498 0)
(1.39674 0.273152 0)
(1.32095 0.209745 0)
(1.26078 0.156908 0)
(1.21425 0.114842 0)
(1.17908 0.0824362 0)
(1.15306 0.0581241 0)
(1.1341 0.0403224 0)
(1.12044 0.0275346 0)
(1.1107 0.0184393 0)
(1.10388 0.0121405 0)
(1.0991 0.00783939 0)
(1.09575 0.00491984 0)
(1.09342 0.00297671 0)
(1.09182 0.00170121 0)
(1.09072 0.000877639 0)
(1.08997 0.000360268 0)
(1.08946 4.80558e-05 0)
(1.08912 -0.000128606 0)
(1.08889 -0.000217246 0)
(1.08874 -0.000251326 0)
(1.08865 -0.000251012 0)
(1.08859 -0.000230576 0)
(1.08856 -0.000199158 0)
(1.08853 -0.000161697 0)
(1.08852 -0.000121173 0)
(1.08851 -7.97233e-05 0)
(1.0885 -3.05426e-05 0)
(1.00169 0.0157752 0)
(1.01146 0.0455234 0)
(1.03152 0.0694244 0)
(1.05665 0.086267 0)
(1.08229 0.0968188 0)
(1.10635 0.102099 0)
(1.1277 0.103083 0)
(1.14556 0.100402 0)
(1.15974 0.0947773 0)
(1.16978 0.0875748 0)
(1.17684 0.0790512 0)
(1.18141 0.0686786 0)
(1.18401 0.0573575 0)
(1.18395 0.0461295 0)
(1.18278 0.0345794 0)
(1.18068 0.0223966 0)
(1.17809 0.00963664 0)
(1.17546 -0.00371777 0)
(1.17323 -0.0179206 0)
(1.17176 -0.0332843 0)
(1.17136 -0.050293 0)
(1.17249 -0.0688627 0)
(1.17512 -0.0901755 0)
(1.18005 -0.116332 0)
(1.18851 -0.148144 0)
(1.20135 -0.186641 0)
(1.22019 -0.233379 0)
(1.24751 -0.290016 0)
(1.28701 -0.357977 0)
(1.34407 -0.438042 0)
(1.42565 -0.529427 0)
(1.54322 -0.630039 0)
(1.69684 -0.714209 0)
(1.82627 -0.729263 0)
(1.93199 -0.671367 0)
(1.96888 -0.547828 0)
(1.90601 -0.336394 0)
(1.82565 -0.0898953 0)
(1.79807 0.120511 0)
(1.82704 0.311909 0)
(1.86378 0.465103 0)
(1.8764 0.577391 0)
(1.85961 0.649324 0)
(1.81331 0.673826 0)
(1.74584 0.651669 0)
(1.66822 0.599459 0)
(1.58363 0.523202 0)
(1.49928 0.436887 0)
(1.42309 0.351198 0)
(1.35882 0.274119 0)
(1.30675 0.208601 0)
(1.26574 0.15523 0)
(1.23412 0.1132 0)
(1.21015 0.0809527 0)
(1.19219 0.0571134 0)
(1.17913 0.0397175 0)
(1.1696 0.0271291 0)
(1.16283 0.0182833 0)
(1.158 0.0121606 0)
(1.15456 0.00793903 0)
(1.15213 0.005098 0)
(1.15041 0.00319073 0)
(1.14919 0.00191934 0)
(1.14833 0.00108525 0)
(1.14773 0.00054972 0)
(1.14731 0.000215709 0)
(1.14702 1.67736e-05 0)
(1.14682 -9.30732e-05 0)
(1.14668 -0.000144959 0)
(1.14658 -0.000159806 0)
(1.14651 -0.000151957 0)
(1.14647 -0.000130244 0)
(1.14644 -9.98377e-05 0)
(1.14642 -6.42498e-05 0)
(1.14639 -1.83029e-05 0)
(1.00107 0.0110946 0)
(1.00739 0.0325763 0)
(1.02106 0.0508246 0)
(1.0394 0.064682 0)
(1.05967 0.0742355 0)
(1.08028 0.0799945 0)
(1.10035 0.0825683 0)
(1.1191 0.0823642 0)
(1.13578 0.0798008 0)
(1.14992 0.0754661 0)
(1.16167 0.0696647 0)
(1.17115 0.0624227 0)
(1.17798 0.0542658 0)
(1.18296 0.0450646 0)
(1.18559 0.0345395 0)
(1.18659 0.0229888 0)
(1.18643 0.0107589 0)
(1.18548 -0.00215324 0)
(1.18373 -0.0161234 0)
(1.18153 -0.0315164 0)
(1.17907 -0.0488749 0)
(1.17672 -0.0684894 0)
(1.17476 -0.091693 0)
(1.17402 -0.11999 0)
(1.17437 -0.154381 0)
(1.17688 -0.196858 0)
(1.18307 -0.249826 0)
(1.19537 -0.315969 0)
(1.21755 -0.398334 0)
(1.25574 -0.50017 0)
(1.31815 -0.624181 0)
(1.41837 -0.769599 0)
(1.52515 -0.83631 0)
(1.52979 -0.784715 0)
(1.35841 -0.594414 1.15906e-17)
(1.05695 -0.300975 0)
(0.727892 -0.0544056 0)
(0.514304 0.00172003 -1.35704e-17)
(0.592077 0.0428492 -1.04319e-17)
(0.755006 0.110041 0)
(0.89017 0.262786 -5.11955e-19)
(1.1476 0.46521 0)
(1.32192 0.606424 0)
(1.418 0.666409 0)
(1.45633 0.671686 0)
(1.45919 0.647508 0)
(1.44075 0.585542 0)
(1.4061 0.502749 0)
(1.36559 0.41256 0)
(1.32638 0.325618 0)
(1.2923 0.249897 0)
(1.26409 0.187482 0)
(1.24157 0.137998 0)
(1.22407 0.0999481 0)
(1.21081 0.0713932 0)
(1.20095 0.0501791 0)
(1.19366 0.0345937 0)
(1.18829 0.023721 0)
(1.18463 0.0161889 0)
(1.18193 0.010822 0)
(1.17999 0.0071392 0)
(1.17856 0.00462313 0)
(1.17751 0.00292964 0)
(1.17676 0.0018039 0)
(1.17621 0.00106324 0)
(1.17582 0.000582365 0)
(1.17554 0.000277805 0)
(1.17534 9.2371e-05 0)
(1.17519 -1.35445e-05 0)
(1.17508 -6.701e-05 0)
(1.17501 -8.64839e-05 0)
(1.17495 -8.3812e-05 0)
(1.17491 -6.70489e-05 0)
(1.17489 -4.05848e-05 0)
(1.17486 -2.1422e-06 0)
(1.00075 0.00797727 0)
(1.0052 0.0235977 0)
(1.01507 0.0373493 0)
(1.02881 0.048252 0)
(1.0447 0.0561974 0)
(1.06166 0.061432 0)
(1.07891 0.064268 0)
(1.09584 0.0650099 0)
(1.11185 0.0639508 0)
(1.12652 0.0614344 0)
(1.13962 0.0576245 0)
(1.15098 0.0525144 0)
(1.16028 0.0462925 0)
(1.16775 0.0389715 0)
(1.17328 0.0306679 0)
(1.17692 0.0212104 0)
(1.17868 0.0106127 0)
(1.17876 -0.00112243 0)
(1.17737 -0.0141097 0)
(1.17463 -0.0286806 0)
(1.1706 -0.0453268 0)
(1.16538 -0.0646315 0)
(1.15916 -0.0875945 0)
(1.15198 -0.115738 0)
(1.14392 -0.150743 1.76942e-32)
(1.13542 -0.194864 -1.75515e-32)
(1.12736 -0.251058 0)
(1.12136 -0.323164 0)
(1.12009 -0.416009 0)
(1.12866 -0.535655 0)
(1.15345 -0.687332 0)
(1.19303 -0.845582 0)
(1.14504 -0.820799 0)
(0.878348 -0.499818 0)
(0.448647 -0.12543 1.39239e-17)
(0 0 0)
(0 0 0)
(0 0 0)
(0 0 0)
(0 0 0)
(0.303465 0.042412 -1.69462e-18)
(0.463197 0.158916 -9.42073e-17)
(0.708282 0.377317 0)
(0.929714 0.541804 0)
(1.06451 0.609129 0)
(1.14875 0.614277 0)
(1.20199 0.578886 0)
(1.22948 0.513137 0)
(1.23851 0.432192 0)
(1.23722 0.347943 0)
(1.23127 0.27108 0)
(1.22392 0.205913 0)
(1.21671 0.153105 0)
(1.21034 0.111746 0)
(1.20493 0.0802295 0)
(1.20077 0.0567334 0)
(1.19749 0.0396644 0)
(1.19496 0.0273816 0)
(1.19307 0.0184962 0)
(1.19168 0.0124553 0)
(1.19079 0.00852118 0)
(1.19007 0.00572468 0)
(1.18951 0.00375111 0)
(1.18907 0.00238872 0)
(1.18873 0.00148004 0)
(1.18847 0.000883032 0)
(1.18827 0.000497778 0)
(1.18811 0.000254858 0)
(1.188 0.000106814 0)
(1.18791 2.19335e-05 0)
(1.18784 -2.10555e-05 0)
(1.18779 -3.58577e-05 0)
(1.18775 -3.25341e-05 0)
(1.18773 -1.59241e-05 0)
(1.18771 1.30544e-05 0)
(1.00057 0.0057185 0)
(1.00394 0.0169674 0)
(1.0115 0.0270891 0)
(1.02228 0.035369 0)
(1.03511 0.0416083 0)
(1.04918 0.045904 0)
(1.0639 0.0484535 0)
(1.0788 0.0494758 0)
(1.09336 0.0491631 0)
(1.10719 0.0477025 0)
(1.12003 0.0451993 0)
(1.13162 0.0416746 0)
(1.14173 0.037178 0)
(1.15022 0.0317099 0)
(1.15698 0.025253 0)
(1.1619 0.0176915 0)
(1.16485 0.00897672 0)
(1.16574 -0.000886465 0)
(1.16457 -0.0120528 0)
(1.16128 -0.0248196 0)
(1.15577 -0.039633 0)
(1.14791 -0.0571107 0)
(1.13751 -0.078235 0)
(1.12428 -0.104403 0)
(1.10783 -0.137401 0)
(1.08786 -0.179685 0)
(1.06416 -0.234642 0)
(1.03687 -0.306844 0)
(1.00622 -0.402282 0)
(0.975431 -0.528178 0)
(0.940833 -0.685821 0)
(0.867048 -0.766617 0)
(0.58498 -0.489205 0)
(0 0 0)
(0 0 0)
(0 0 0)
(0 0 0)
(0 0 0)
(0 0 0)
(0 0 0)
(0 0 0)
(0.204455 0.0156588 -4.14998e-17)
(0.318003 0.118534 -1.09109e-16)
(0.517954 0.326258 0)
(0.697802 0.459541 0)
(0.832322 0.510389 0)
(0.938085 0.506526 0)
(1.01788 0.466481 0)
(1.07555 0.404222 0)
(1.11548 0.332857 0)
(1.14232 0.263611 0)
(1.16026 0.20257 0)
(1.17222 0.151981 0)
(1.1801 0.111806 0)
(1.18524 0.0809032 0)
(1.18855 0.0576275 0)
(1.19063 0.0404693 0)
(1.1919 0.0281536 0)
(1.19272 0.0193174 0)
(1.19304 0.0130551 0)
(1.19329 0.00876461 0)
(1.19346 0.00583938 0)
(1.19352 0.00392139 0)
(1.19353 0.00259669 0)
(1.1935 0.00168433 0)
(1.19345 0.00105539 0)
(1.19339 0.000633673 0)
(1.19333 0.000361149 0)
(1.19327 0.000190248 0)
(1.19321 8.72758e-05 0)
(1.19317 2.95504e-05 0)
(1.19314 2.63793e-06 0)
(1.19311 -4.29357e-06 0)
(1.19309 3.76903e-06 0)
(1.19308 2.35264e-05 0)
(1.00046 0.00395862 0)
(1.00318 0.0117595 0)
(1.00931 0.0188749 0)
(1.01819 0.0248228 0)
(1.02898 0.0294158 0)
(1.04105 0.0326714 0)
(1.05392 0.0346947 0)
(1.06715 0.0356326 0)
(1.08037 0.035631 0)
(1.0932 0.0347997 0)
(1.10537 0.0332013 0)
(1.11665 0.0308476 0)
(1.12676 0.0277297 0)
(1.1355 0.023803 0)
(1.14265 0.0190262 0)
(1.14804 0.0133473 0)
(1.15145 0.00673669 0)
(1.15264 -0.000908112 0)
(1.15137 -0.00970889 0)
(1.14742 -0.0199312 0)
(1.1405 -0.0319616 0)
(1.13021 -0.0463564 0)
(1.11603 -0.0639574 0)
(1.09726 -0.0859881 0)
(1.07293 -0.114125 2.35434e-33)
(1.04182 -0.150712 -2.35196e-33)
(1.00242 -0.199042 0)
(0.952913 -0.263649 0)
(0.890578 -0.350542 0)
(0.816823 -0.465275 0)
(0.706665 -0.590964 0)
(0.530879 -0.512771 -1.30164e-16)
(0.277557 -0.136247 -3.84594e-17)
(0 0 0)
(0 0 0)
(0 0 0)
(0 0 0)
(0 0 0)
(0 0 0)
(0 0 0)
(0 0 0)
(0 0 0)
(0.206082 0.0270456 7.78932e-18)
(0.289666 0.137328 1.71795e-17)
(0.441837 0.293645 0)
(0.582466 0.371782 0)
(0.712071 0.393061 0)
(0.823968 0.375714 0)
(0.916971 0.334392 0)
(0.991241 0.281353 0)
(1.04814 0.226459 0)
(1.09067 0.176098 0)
(1.12189 0.133318 0)
(1.1444 0.0987678 0)
(1.16039 0.0718411 0)
(1.17164 0.0514087 0)
(1.17943 0.0362728 0)
(1.18478 0.0252892 0)
(1.18843 0.017415 0)
(1.19084 0.0118947 0)
(1.19244 0.00806375 0)
(1.19349 0.00542334 0)
(1.19419 0.00362699 0)
(1.19464 0.00238274 0)
(1.19494 0.00154087 0)
(1.19509 0.000989937 0)
(1.19518 0.000623181 0)
(1.19522 0.000379039 0)
(1.19523 0.00021862 0)
(1.19523 0.000117109 0)
(1.19521 5.69636e-05 0)
(1.1952 2.5564e-05 0)
(1.19519 1.31462e-05 0)
(1.19518 1.54309e-05 0)
(1.19517 2.68933e-05 0)
(1.0004 0.00249738 0)
(1.00272 0.00742284 0)
(1.00799 0.0119541 0)
(1.01569 0.0157965 0)
(1.02519 0.0188129 0)
(1.03597 0.0209917 0)
(1.04761 0.0223851 0)
(1.0597 0.0230765 0)
(1.07193 0.0231625 0)
(1.08396 0.0227139 0)
(1.09554 0.0217637 0)
(1.10641 0.0203148 0)
(1.11631 0.0183464 0)
(1.12501 0.0158122 0)
(1.13222 0.0126628 0)
(1.1377 0.00884018 0)
(1.14113 0.00438249 0)
(1.1423 -0.000830252 0)
(1.14076 -0.00689849 0)
(1.13614 -0.0140152 0)
(1.12798 -0.0224871 0)
(1.11568 -0.0327319 0)
(1.09843 -0.0453725 0)
(1.07511 -0.0613268 0)
(1.04419 -0.0818992 0)
(1.0036 -0.108938 0)
(0.950524 -0.145063 0)
(0.881167 -0.193902 0)
(0.79025 -0.260207 0)
(0.674849 -0.346284 0)
(0.499707 -0.42398 0)
(0.315499 -0.30394 -3.23807e-16)
(0 0 0)
(0 0 0)
(0 0 0)
(0 0 0)
(0 0 0)
(0 0 0)
(0 0 0)
(0 0 0)
(0 0 0)
(0 0 0)
(0 0 0)
(0.225634 0.0465223 3.6913e-18)
(0.304027 0.158967 0)
(0.418594 0.235248 0)
(0.551748 0.264711 0)
(0.67992 0.261129 0)
(0.793563 0.236974 0)
(0.891671 0.202313 0)
(0.969794 0.164716 0)
(1.03118 0.129233 0)
(1.07793 0.0985876 0)
(1.11256 0.0734901 0)
(1.13774 0.0537058 0)
(1.15579 0.0385814 0)
(1.16854 0.0273149 0)
(1.17743 0.0191001 0)
(1.18356 0.0132029 0)
(1.18774 0.00903785 0)
(1.19056 0.00613784 0)
(1.19246 0.00413828 0)
(1.19373 0.00277587 0)
(1.19456 0.0018459 0)
(1.19511 0.00120998 0)
(1.19546 0.000782604 0)
(1.19568 0.000493745 0)
(1.19581 0.000302961 0)
(1.19588 0.000180452 0)
(1.19591 0.000103443 0)
(1.19593 5.6212e-05 0)
(1.19594 3.02421e-05 0)
(1.19594 1.81238e-05 0)
(1.19594 1.79478e-05 0)
(1.19594 2.30333e-05 0)
(1.00036 0.00120838 0)
(1.00248 0.00359224 0)
(1.00728 0.00579764 0)
(1.01434 0.00768475 0)
(1.02312 0.00917975 0)
(1.03317 0.0102707 0)
(1.04411 0.0109795 0)
(1.05556 0.0113434 0)
(1.0672 0.0114096 0)
(1.07875 0.0112136 0)
(1.08993 0.0107697 0)
(1.10051 0.0100784 0)
(1.11025 0.00912609 0)
(1.11886 0.00788632 0)
(1.12605 0.00632137 0)
(1.1315 0.00438887 0)
(1.13486 0.00204987 0)
(1.13578 -0.00049526 0)
(1.13402 -0.00358738 0)
(1.1289 -0.00723749 0)
(1.11989 -0.0116155 0)
(1.10626 -0.016944 0)
(1.08699 -0.0235535 0)
(1.06066 -0.0319392 0)
(1.02535 -0.0428135 9.91113e-33)
(0.978346 -0.0571951 -9.99446e-33)
(0.915891 -0.0765346 0)
(0.832735 -0.102842 0)
(0.721508 -0.138715 0)
(0.573237 -0.184345 0)
(0.350256 -0.212037 0)
(0.212516 -0.0992547 -3.18292e-16)
(0 0 0)
(0 0 0)
(0 0 0)
(0 0 0)
(0 0 0)
(0 0 0)
(0 0 0)
(0 0 0)
(0 0 0)
(0 0 0)
(0 0 0)
(0.194473 0.011266 -1.20789e-17)
(0.234899 0.0653598 0)
(0.326517 0.112065 0)
(0.455213 0.132345 0)
(0.591345 0.133716 0)
(0.716755 0.123234 0)
(0.828433 0.105791 0)
(0.918898 0.0866565 0)
(0.992104 0.0683343 0)
(1.04866 0.0523672 0)
(1.09108 0.0391687 0)
(1.12228 0.0286976 0)
(1.14485 0.0206618 0)
(1.1609 0.0146569 0)
(1.17217 0.0102655 0)
(1.18 0.00710757 0)
(1.18536 0.00487389 0)
(1.18902 0.00331533 0)
(1.19149 0.002239 0)
(1.19314 0.00150337 0)
(1.19425 0.00100078 0)
(1.19498 0.00065909 0)
(1.19545 0.000429245 0)
(1.19575 0.000274715 0)
(1.19594 0.000171543 0)
(1.19605 0.000103007 0)
(1.19612 5.99406e-05 0)
(1.19615 3.31233e-05 0)
(1.19617 1.81739e-05 0)
(1.19618 1.09292e-05 0)
(1.19619 9.73175e-06 0)
(1.19621 1.27433e-05 0)
(1.00035 1.1267e-06 0)
(1.00237 1.23814e-06 0)
(1.00703 2.0952e-06 0)
(1.0139 2.83743e-06 0)
(1.02245 3.75749e-06 0)
(1.03227 4.75314e-06 0)
(1.04299 5.73374e-06 0)
(1.05423 6.56698e-06 0)
(1.06567 7.13167e-06 0)
(1.07707 7.30799e-06 0)
(1.08811 7.00279e-06 0)
(1.0986 6.17374e-06 0)
(1.10826 4.83624e-06 0)
(1.11684 3.05786e-06 0)
(1.12404 9.80682e-07 0)
(1.12947 -1.21383e-06 0)
(1.13295 -3.49763e-06 0)
(1.13349 -4.81161e-06 0)
(1.13165 -6.11895e-06 0)
(1.12639 -6.95658e-06 0)
(1.11709 -7.25267e-06 0)
(1.103 -6.90582e-06 0)
(1.08302 -5.8995e-06 0)
(1.05564 -4.18374e-06 0)
(1.01879 -1.83421e-06 0)
(0.969523 8.04961e-07 0)
(0.90374 2.96863e-06 0)
(0.815628 1.06908e-06 0)
(0.696926 -6.76702e-06 0)
(0.537057 -2.36704e-05 0)
(0.300751 -3.48407e-05 0)
(0.208695 -8.85572e-06 0)
(0 0 0)
(0 0 0)
(0 0 0)
(0 0 0)
(0 0 0)
(0 0 0)
(0 0 0)
(0 0 0)
(0 0 0)
(0 0 0)
(0 0 0)
(0.18667 -4.81134e-06 0)
(0.215483 -1.88114e-05 0)
(0.296593 -5.40318e-06 0)
(0.422506 1.56095e-05 0)
(0.560842 2.48996e-05 0)
(0.69196 2.31593e-05 0)
(0.805208 1.84984e-05 0)
(0.900438 1.59218e-05 0)
(0.978235 1.15739e-05 0)
(1.03836 8.33899e-06 0)
(1.08351 5.69492e-06 0)
(1.11681 3.51015e-06 0)
(1.14097 1.88163e-06 0)
(1.15818 7.89141e-07 0)
(1.17029 1.7745e-07 0)
(1.17871 -6.4383e-08 0)
(1.18449 -5.34201e-08 0)
(1.18844 9.85415e-08 0)
(1.19111 2.89171e-07 0)
(1.19291 4.54257e-07 0)
(1.19411 5.64776e-07 0)
(1.1949 6.13093e-07 0)
(1.19542 6.11016e-07 0)
(1.19575 5.67477e-07 0)
(1.19596 4.89964e-07 0)
(1.19608 3.79245e-07 0)
(1.19616 2.38353e-07 0)
(1.1962 7.2518e-08 0)
(1.19623 -1.2188e-07 0)
(1.19624 -3.43594e-07 0)
(1.19625 -5.4087e-07 0)
(1.19627 -8.39445e-07 0)
(1.00036 -0.00120613 0)
(1.00248 -0.00358976 0)
(1.00728 -0.00579346 0)
(1.01434 -0.0076791 0)
(1.02312 -0.00917226 0)
(1.03317 -0.0102612 0)
(1.04411 -0.0109681 0)
(1.05556 -0.0113304 0)
(1.0672 -0.0113955 0)
(1.07875 -0.0111991 0)
(1.08993 -0.0107559 0)
(1.10052 -0.0100663 0)
(1.11025 -0.00911663 0)
(1.11886 -0.00788038 0)
(1.12606 -0.00631952 0)
(1.13151 -0.00439127 0)
(1.13487 -0.0020563 0)
(1.13579 0.000485391 0)
(1.13402 0.00357493 0)
(1.12891 0.00722343 0)
(1.1199 0.0116009 0)
(1.10627 0.01693 0)
(1.08699 0.0235415 0)
(1.06066 0.0319304 0)
(1.02535 0.0428092 0)
(0.978353 0.0571958 0)
(0.915899 0.0765392 0)
(0.832747 0.102844 0)
(0.721518 0.138701 0)
(0.573252 0.184298 0)
(0.350255 0.211968 0)
(0.212517 0.0992167 3.18138e-16)
(0 0 0)
(0 0 0)
(0 0 0)
(0 0 0)
(0 0 0)
(0 0 0)
(0 0 0)
(0 0 0)
(0 0 0)
(0 0 0)
(0 0 0)
(0.194452 -0.0112661 1.21016e-17)
(0.234858 -0.065389 0)
(0.326457 -0.112079 0)
(0.455159 -0.13233 0)
(0.591304 -0.133685 0)
(0.716732 -0.123204 0)
(0.828414 -0.105766 0)
(0.918896 -0.0866324 0)
(0.992099 -0.0683158 0)
(1.04866 -0.0523525 0)
(1.09108 -0.0391583 0)
(1.12228 -0.0286912 0)
(1.14485 -0.0206582 0)
(1.16091 -0.0146553 0)
(1.17218 -0.010265 0)
(1.18 -0.00710755 0)
(1.18536 -0.00487381 0)
(1.18902 -0.003315 0)
(1.19149 -0.00223829 0)
(1.19314 -0.00150238 0)
(1.19425 -0.000999583 0)
(1.19498 -0.000657832 0)
(1.19545 -0.000427999 0)
(1.19575 -0.000273578 0)
(1.19594 -0.000170563 0)
(1.19605 -0.000102263 0)
(1.19612 -5.94687e-05 0)
(1.19615 -3.2988e-05 0)
(1.19617 -1.84344e-05 0)
(1.19618 -1.16283e-05 0)
(1.19619 -1.08351e-05 0)
(1.19621 -1.44531e-05 0)
(1.0004 -0.00249517 0)
(1.00272 -0.0074204 0)
(1.00799 -0.01195 0)
(1.01569 -0.0157909 0)
(1.02519 -0.0188056 0)
(1.03597 -0.0209825 0)
(1.04761 -0.022374 0)
(1.05971 -0.0230638 0)
(1.07193 -0.0231488 0)
(1.08397 -0.0226999 0)
(1.09554 -0.0217504 0)
(1.10641 -0.0203032 0)
(1.11632 -0.0183375 0)
(1.12502 -0.0158067 0)
(1.13223 -0.0126612 0)
(1.1377 -0.00884269 0)
(1.14114 -0.004389 0)
(1.14231 0.00082043 0)
(1.14077 0.00688612 0)
(1.13614 0.0140011 0)
(1.12798 0.0224724 0)
(1.11569 0.0327178 0)
(1.09844 0.0453599 0)
(1.07512 0.0613169 0)
(1.0442 0.0818929 0)
(1.00362 0.108935 0)
(0.950539 0.145064 0)
(0.881188 0.193901 0)
(0.790271 0.260192 0)
(0.67487 0.346243 0)
(0.499717 0.423923 0)
(0.315498 0.303911 3.23817e-16)
(0 0 0)
(0 0 0)
(0 0 0)
(0 0 0)
(0 0 0)
(0 0 0)
(0 0 0)
(0 0 0)
(0 0 0)
(0 0 0)
(0 0 0)
(0.225645 -0.0465106 -3.69527e-18)
(0.304029 -0.158951 0)
(0.418571 -0.235234 0)
(0.551728 -0.264699 0)
(0.679903 -0.261116 0)
(0.793563 -0.236955 0)
(0.891669 -0.202296 0)
(0.969802 -0.164696 0)
(1.03119 -0.129217 0)
(1.07793 -0.0985745 0)
(1.11256 -0.0734804 0)
(1.13774 -0.0536995 0)
(1.15579 -0.0385776 0)
(1.16854 -0.0273129 0)
(1.17743 -0.019099 0)
(1.18356 -0.0132022 0)
(1.18774 -0.00903722 0)
(1.19056 -0.006137 0)
(1.19246 -0.00413721 0)
(1.19373 -0.0027746 0)
(1.19456 -0.00184453 0)
(1.19511 -0.0012086 0)
(1.19546 -0.00078129 0)
(1.19568 -0.000492586 0)
(1.19581 -0.000302011 0)
(1.19588 -0.000179736 0)
(1.19591 -0.000103018 0)
(1.19593 -5.61247e-05 0)
(1.19594 -3.05272e-05 0)
(1.19594 -1.88492e-05 0)
(1.19594 -1.90687e-05 0)
(1.19594 -2.4741e-05 0)
(1.00046 -0.0039565 0)
(1.00318 -0.0117572 0)
(1.00931 -0.018871 0)
(1.01819 -0.0248175 0)
(1.02898 -0.0294087 0)
(1.04106 -0.0326625 0)
(1.05392 -0.034684 0)
(1.06715 -0.0356205 0)
(1.08037 -0.035618 0)
(1.0932 -0.0347865 0)
(1.10538 -0.0331889 0)
(1.11665 -0.0308369 0)
(1.12677 -0.0277215 0)
(1.13551 -0.0237981 0)
(1.14266 -0.0190251 0)
(1.14805 -0.0133501 0)
(1.15145 -0.00674318 0)
(1.15265 0.000898409 0)
(1.15138 0.00969668 0)
(1.14743 0.0199173 0)
(1.14051 0.031947 0)
(1.13022 0.0463421 0)
(1.11604 0.0639442 0)
(1.09727 0.0859768 0)
(1.07294 0.114117 0)
(1.04184 0.150706 0)
(1.00244 0.199037 0)
(0.952937 0.263643 0)
(0.890607 0.350527 0)
(0.816851 0.465243 0)
(0.706684 0.590921 0)
(0.530881 0.512753 1.30167e-16)
(0.277557 0.136244 3.84571e-17)
(0 0 0)
(0 0 0)
(0 0 0)
(0 0 0)
(0 0 0)
(0 0 0)
(0 0 0)
(0 0 0)
(0 0 0)
(0.206088 -0.0270506 -7.78847e-18)
(0.289677 -0.13733 -1.7151e-17)
(0.441855 -0.293632 0)
(0.582477 -0.371767 0)
(0.712087 -0.393052 0)
(0.823985 -0.375708 0)
(0.91699 -0.334379 0)
(0.991258 -0.281334 0)
(1.04815 -0.22644 0)
(1.09068 -0.176079 0)
(1.1219 -0.133303 0)
(1.14441 -0.0987572 0)
(1.1604 -0.0718339 0)
(1.17164 -0.051404 0)
(1.17944 -0.0362697 0)
(1.18479 -0.0252871 0)
(1.18843 -0.0174132 0)
(1.19085 -0.0118931 0)
(1.19244 -0.00806211 0)
(1.1935 -0.0054217 0)
(1.19419 -0.00362531 0)
(1.19464 -0.0023811 0)
(1.19494 -0.00153933 0)
(1.19509 -0.00098854 0)
(1.19518 -0.000621991 0)
(1.19522 -0.000378096 0)
(1.19523 -0.000217952 0)
(1.19523 -0.000116738 0)
(1.19521 -5.69343e-05 0)
(1.1952 -2.58984e-05 0)
(1.19519 -1.3911e-05 0)
(1.19518 -1.65783e-05 0)
(1.19517 -2.85805e-05 0)
(1.00057 -0.00571651 0)
(1.00394 -0.0169651 0)
(1.0115 -0.0270854 0)
(1.02228 -0.035364 0)
(1.03511 -0.0416017 0)
(1.04918 -0.0458957 0)
(1.0639 -0.0484435 0)
(1.07881 -0.0494645 0)
(1.09336 -0.0491511 0)
(1.1072 -0.0476905 0)
(1.12004 -0.0451881 0)
(1.13163 -0.041665 0)
(1.14174 -0.0371708 0)
(1.15023 -0.0317057 0)
(1.15699 -0.0252523 0)
(1.16191 -0.0176946 0)
(1.16486 -0.00898323 0)
(1.16575 0.000876977 0)
(1.16458 0.012041 0)
(1.16129 0.0248062 0)
(1.15578 0.0396188 0)
(1.14792 0.0570966 0)
(1.13752 0.0782216 0)
(1.12429 0.10439 0)
(1.10784 0.137389 0)
(1.08787 0.179675 0)
(1.06418 0.234632 0)
(1.03689 0.306831 0)
(1.00625 0.402264 0)
(0.97546 0.528148 0)
(0.940851 0.685799 0)
(0.867053 0.766613 0)
(0.584979 0.489207 0)
(0 0 0)
(0 0 0)
(0 0 0)
(0 0 0)
(0 0 0)
(0 0 0)
(0 0 0)
(0 0 0)
(0.204457 -0.0156577 4.15007e-17)
(0.318023 -0.118541 1.09111e-16)
(0.517961 -0.326258 0)
(0.697824 -0.459534 0)
(0.83235 -0.510378 0)
(0.938111 -0.506517 0)
(1.0179 -0.466471 0)
(1.07557 -0.404203 0)
(1.11549 -0.332833 0)
(1.14233 -0.263587 0)
(1.16027 -0.20255 0)
(1.17222 -0.151965 0)
(1.18011 -0.111795 0)
(1.18525 -0.0808953 0)
(1.18856 -0.0576217 0)
(1.19064 -0.040465 0)
(1.1919 -0.0281499 0)
(1.19272 -0.0193141 0)
(1.19304 -0.0130523 0)
(1.1933 -0.00876203 0)
(1.19346 -0.00583701 0)
(1.19352 -0.00391933 0)
(1.19353 -0.00259477 0)
(1.1935 -0.00168261 0)
(1.19345 -0.0010539 0)
(1.19339 -0.000632445 0)
(1.19332 -0.000360223 0)
(1.19327 -0.000189639 0)
(1.19321 -8.69928e-05 0)
(1.19317 -2.96037e-05 0)
(1.19314 -3.05699e-06 0)
(1.19311 3.49634e-06 0)
(1.19309 -4.94497e-06 0)
(1.19308 -2.51794e-05 0)
(1.00075 -0.00797545 0)
(1.0052 -0.0235957 0)
(1.01508 -0.0373458 0)
(1.02881 -0.0482474 0)
(1.0447 -0.0561913 0)
(1.06166 -0.0614244 0)
(1.07891 -0.064259 0)
(1.09585 -0.0649998 0)
(1.11185 -0.0639402 0)
(1.12653 -0.0614238 0)
(1.13963 -0.0576146 0)
(1.15099 -0.0525061 0)
(1.16029 -0.0462864 0)
(1.16776 -0.0389682 0)
(1.17329 -0.0306679 0)
(1.17693 -0.0212138 0)
(1.17869 -0.0106192 0)
(1.17877 0.00111332 0)
(1.17738 0.0140985 0)
(1.17465 0.028668 0)
(1.17061 0.0453135 0)
(1.16539 0.0646181 0)
(1.15917 0.0875815 0)
(1.15199 0.115725 0)
(1.14393 0.150731 0)
(1.13543 0.194852 0)
(1.12738 0.251044 0)
(1.12138 0.323147 0)
(1.1201 0.415988 0)
(1.12867 0.535626 0)
(1.15346 0.687314 0)
(1.19304 0.845582 0)
(1.14505 0.820802 0)
(0.878381 0.499822 0)
(0.448605 0.125419 1.16082e-17)
(0 0 0)
(0 0 0)
(0 0 0)
(0 0 0)
(0 0 0)
(0.30347 -0.0424175 -7.97869e-17)
(0.463187 -0.158922 3.61054e-17)
(0.708315 -0.377351 0)
(0.929708 -0.541806 0)
(1.06452 -0.609129 0)
(1.14876 -0.61427 0)