/*--------------------------------*- C++ -*----------------------------------*\
| =========                 |                                                 |
| \\      /  F ield         | OpenFOAM: The Open Source CFD Toolbox           |
|  \\    /   O peration     | Version:  2206                                  |
|   \\  /    A nd           | Website:  www.openfoam.com                      |
|    \\/     M anipulation  |                                                 |
\*---------------------------------------------------------------------------*/
FoamFile
{
    version     2.0;
    format      ascii;
    arch        "LSB;label=32;scalar=64";
    class       surfaceVectorField;
    location    "0.6";
    object      Uf;
}
// * * * * * * * * * * * * * * * * * * * * * * * * * * * * * * * * * * * * * //

dimensions      [0 1 -1 0 0 0 0];

internalField   nonuniform List<vector> 
3650
(
(0.859788 0.0532684 0)
(0.903269 0.140212 0)
(0.701327 0.084659 0)
(0.900251 0.158461 0)
(0.567202 0.0661329 0)
(0.843095 0.134125 0)
(0.463639 0.0366994 0)
(0.752039 0.103563 0)
(0.387499 0.0190263 0)
(0.671795 0.0761401 0)
(0.333455 0.0103646 0)
(0.606306 0.054044 0)
(0.295406 0.00563535 0)
(0.553844 0.0380494 0)
(0.268638 0.00300973 0)
(0.511534 0.0267681 0)
(0.249572 0.00160713 0)
(0.478152 0.0190654 0)
(0.235795 0.000849694 0)
(0.452171 0.0137773 0)
(0.225833 0.000405018 0)
(0.432131 0.00996239 0)
(0.218777 0.00010605 0)
(0.416931 0.0070557 0)
(0.214079 -0.000136478 0)
(0.405776 0.00469801 0)
(0.211406 -0.000363875 0)
(0.398095 0.00267279 0)
(0.210551 -0.000602404 0)
(0.393524 0.000855161 0)
(0.211271 -0.000876082 0)
(0.391741 -0.000719486 0)
(0.213423 -0.00118218 0)
(0.39231 -0.00215243 0)
(0.217113 -0.00152621 0)
(0.395211 -0.00368952 0)
(0.22243 -0.00193733 0)
(0.400487 -0.00531713 0)
(0.22954 -0.00244018 0)
(0.408216 -0.00710947 0)
(0.238705 -0.00306009 0)
(0.418622 -0.00916606 0)
(0.250305 -0.00382868 0)
(0.432067 -0.0115998 0)
(0.264843 -0.00478149 0)
(0.449068 -0.0145379 0)
(0.282954 -0.00595319 0)
(0.470313 -0.0181107 0)
(0.30539 -0.00737016 0)
(0.496645 -0.0224365 0)
(0.332988 -0.00903975 0)
(0.529043 -0.0275982 0)
(0.366612 -0.0109355 0)
(0.568567 -0.0336245 0)
(0.407054 -0.0129717 0)
(0.616282 -0.0404421 0)
(0.454855 -0.0149707 0)
(0.673117 -0.0478007 0)
(0.510041 -0.0166292 0)
(0.739634 -0.0551877 0)
(0.571783 -0.0174906 0)
(0.815711 -0.061742 0)
(0.637963 -0.0169314 0)
(0.900096 -0.0661812 0)
(0.704739 -0.0142326 0)
(0.989868 -0.066776 0)
(0.766233 -0.00897005 0)
(1.08023 -0.0614942 0)
(0.814956 -0.00159076 0)
(1.16382 -0.048723 0)
(0.843155 0.00665491 0)
(1.23119 -0.0281994 0)
(0.8449 0.0149965 0)
(1.27056 -0.00174511 0)
(0.821646 0.0224856 0)
(1.27765 0.0232543 0)
(0.774014 0.0272528 0)
(1.25214 0.0476321 0)
(0.70709 0.0281878 0)
(1.19381 0.0669245 0)
(0.629012 0.0257286 0)
(1.10832 0.0780777 0)
(0.548943 0.0212695 0)
(1.00566 0.0800698 0)
(0.474319 0.0168311 0)
(0.897096 0.0746247 0)
(0.409366 0.0139152 0)
(0.791197 0.0649532 0)
(0.355487 0.0101612 0)
(0.697883 0.0538796 0)
(0.312299 0.0061657 0)
(0.617737 0.0431884 0)
(0.278736 0.00411426 0)
(0.552526 0.0335629 0)
(0.253212 0.00273535 0)
(0.501208 0.0255244 0)
(0.234271 0.0017394 0)
(0.46192 0.0189421 0)
(0.220568 0.00102186 0)
(0.432606 0.0137031 0)
(0.21093 0.000512467 0)
(0.411257 0.00963832 0)
(0.204369 0.000162181 0)
(0.39607 0.00656091 0)
(0.200081 -6.70479e-05 0)
(0.385532 0.00428813 0)
(0.197424 -0.00020658 0)
(0.378419 0.00265686 0)
(0.195901 -0.000280621 0)
(0.373762 0.00152391 0)
(0.195139 -0.000310068 0)
(0.370827 0.0007617 0)
(0.194873 -0.00031207 0)
(0.369077 0.000266313 0)
(0.194914 -0.000295568 0)
(0.368118 -4.08545e-05 0)
(0.195123 -0.000266733 0)
(0.36766 -0.000209159 0)
(0.195412 -0.000233719 0)
(0.367523 -0.00028857 0)
(0.195728 -0.000200293 0)
(0.367572 -0.000316162 0)
(0.19604 -0.000168664 0)
(0.367727 -0.000312418 0)
(0.196332 -0.000140169 0)
(0.367927 -0.000291931 0)
(0.196593 -0.000115238 0)
(0.368143 -0.000260699 0)
(0.19682 -9.42551e-05 0)
(0.368352 -0.000227233 0)
(0.197014 -7.62246e-05 0)
(0.368544 -0.000193714 0)
(0.197176 -6.09905e-05 0)
(0.368715 -0.000161898 0)
(0.19731 -4.83984e-05 0)
(0.368863 -0.000133558 0)
(0.197418 -3.79142e-05 0)
(0.368987 -0.000108376 0)
(0.197505 -2.9232e-05 0)
(0.369089 -8.6464e-05 0)
(0.197572 -2.20276e-05 0)
(0.369171 -6.75803e-05 0)
(0.197623 -1.59331e-05 0)
(0.369235 -5.12156e-05 0)
(0.19766 -1.06241e-05 0)
(0.369283 -3.67986e-05 0)
(0.197684 -5.99823e-06 0)
(0.369317 -2.36883e-05 0)
(0.369337 -1.11837e-05 0)
(1.05168 0.154969 0)
(1.01328 0.0885307 0)
(1.04732 0.183286 0)
(1.05542 0.162817 0)
(1.01038 0.168409 0)
(1.06743 0.171065 0)
(0.955083 0.14358 0)
(1.04899 0.158865 0)
(0.890556 0.113554 0)
(1.01364 0.140668 0)
(0.826291 0.0848367 0)
(0.970962 0.118309 0)
(0.768872 0.0620314 0)
(0.92742 0.095468 0)
(0.720321 0.0452443 0)
(0.884817 0.075319 0)
(0.680387 0.0331107 0)
(0.845726 0.0589995 0)
(0.648279 0.0241921 0)
(0.811767 0.0458857 0)
(0.623077 0.0174212 0)
(0.783224 0.0351646 0)
(0.603813 0.0120638 0)
(0.759904 0.0263193 0)
(0.589691 0.00761843 0)
(0.741456 0.0188202 0)
(0.580101 0.00378591 0)
(0.727552 0.0122626 0)
(0.574548 0.000462123 0)
(0.717891 0.00640828 0)
(0.572641 -0.00245533 0)
(0.712227 0.00118714 0)
(0.573968 -0.00530815 0)
(0.71019 -0.00347877 0)
(0.578418 -0.0083064 0)
(0.711533 -0.00813976 0)
(0.586066 -0.0114936 0)
(0.716265 -0.0129653 0)
(0.597052 -0.0150416 0)
(0.724443 -0.0180958 0)
(0.611686 -0.0191496 0)
(0.736261 -0.0237999 0)
(0.630462 -0.024031 0)
(0.752082 -0.030376 0)
(0.654079 -0.0299062 0)
(0.772452 -0.0381547 0)
(0.683432 -0.0369806 0)
(0.798151 -0.0474632 0)
(0.7196 -0.0454186 0)
(0.830131 -0.0586047 0)
(0.763791 -0.0553071 0)
(0.869547 -0.0717893 0)
(0.817283 -0.0665965 0)
(0.917716 -0.0871169 0)
(0.881315 -0.0790058 0)
(0.976052 -0.104474 0)
(0.956888 -0.0918994 0)
(1.04594 -0.123375 0)
(1.04448 -0.104151 0)
(1.12855 -0.142779 0)
(1.14365 -0.114009 0)
(1.22449 -0.160911 0)
(1.25246 -0.119042 0)
(1.33337 -0.174999 0)
(1.36695 -0.116172 0)
(1.45311 -0.181259 0)
(1.48026 -0.102189 0)
(1.57902 -0.174808 0)
(1.58258 -0.0749803 0)
(1.70298 -0.15104 0)
(1.66223 -0.0350795 0)
(1.81262 -0.107851 0)
(1.70705 0.00970553 0)
(1.89426 -0.0465614 0)
(1.70982 0.053855 0)
(1.93543 0.0204778 0)
(1.67214 0.0951166 0)
(1.93333 0.085313 0)
(1.59421 0.126425 0)
(1.88646 0.144852 0)
(1.48355 0.142794 0)
(1.79779 0.188739 0)
(1.3522 0.14399 0)
(1.67707 0.211422 0)
(1.21322 0.133202 0)
(1.53705 0.213607 0)
(1.07903 0.115215 0)
(1.39 0.199139 0)
(0.958907 0.0947859 0)
(1.24823 0.174006 0)
(0.857176 0.075243 0)
(1.12104 0.14492 0)
(0.774428 0.0581447 0)
(1.01278 0.116311 0)
(0.709451 0.0438281 0)
(0.924471 0.0905009 0)
(0.659882 0.0322495 0)
(0.855059 0.0685115 0)
(0.623003 0.0231566 0)
(0.802118 0.0505824 0)
(0.596179 0.0161952 0)
(0.762734 0.0364628 0)
(0.577081 0.0109886 0)
(0.73406 0.0256588 0)
(0.563772 0.00718693 0)
(0.713591 0.0175975 0)
(0.554701 0.00448471 0)
(0.699254 0.0117279 0)
(0.548666 0.00261608 0)
(0.689394 0.00755903 0)
(0.544765 0.00135979 0)
(0.682734 0.0046633 0)
(0.542333 0.00054421 0)
(0.678333 0.00269795 0)
(0.540886 4.43166e-05 0)
(0.675494 0.0014067 0)
(0.540087 -0.000238052 0)
(0.673711 0.000589443 0)
(0.53971 -0.000382766 0)
(0.672642 8.86066e-05 0)
(0.539595 -0.000441359 0)
(0.672041 -0.000201366 0)
(0.539635 -0.000447326 0)
(0.671744 -0.000351959 0)
(0.539758 -0.000423027 0)
(0.671629 -0.000415123 0)
(0.539919 -0.000382201 0)
(0.671627 -0.000421214 0)
(0.54009 -0.000334359 0)
(0.671689 -0.000398121 0)
(0.540258 -0.000285452 0)
(0.671781 -0.000361636 0)
(0.540412 -0.000239378 0)
(0.671885 -0.000315994 0)
(0.540548 -0.000197472 0)
(0.671989 -0.000269345 0)
(0.540664 -0.000160022 0)
(0.672084 -0.000224547 0)
(0.540761 -0.00012711 0)
(0.672169 -0.000183013 0)
(0.540838 -9.83374e-05 0)
(0.67224 -0.000145528 0)
(0.540899 -7.29936e-05 0)
(0.672298 -0.000111722 0)
(0.540943 -5.02319e-05 0)
(0.672342 -8.11634e-05 0)
(0.540973 -2.8854e-05 0)
(0.672374 -5.30345e-05 0)
(0.672393 -2.41799e-05 0)
(1.03945 0.1112 0)
(1.00907 0.0490818 0)
(1.08191 0.157611 0)
(1.04731 0.120356 0)
(1.10285 0.165365 0)
(1.08751 0.150129 0)
(1.10539 0.159562 0)
(1.11047 0.156321 0)
(1.09403 0.147754 0)
(1.11686 0.152028 0)
(1.07199 0.130288 0)
(1.11448 0.140355 0)
(1.04275 0.109693 0)
(1.10214 0.124704 0)
(1.00978 0.0895599 0)
(1.08374 0.108291 0)
(0.976819 0.0718591 0)
(1.0619 0.0919578 0)
(0.946504 0.0568265 0)
(1.03925 0.0762006 0)
(0.919925 0.0440666 0)
(1.01724 0.0617441 0)
(0.897445 0.0330733 0)
(0.996974 0.0487991 0)
(0.879213 0.0234024 0)
(0.979182 0.037052 0)
(0.865244 0.0147557 0)
(0.964347 0.026232 0)
(0.855432 0.00697224 0)
(0.952736 0.0162204 0)
(0.849621 -3.04067e-05 0)
(0.944478 0.00699771 0)
(0.847649 -0.00656131 0)
(0.939605 -0.00150675 0)
(0.849236 -0.0131052 0)
(0.938029 -0.00972644 0)
(0.854459 -0.019932 0)
(0.939773 -0.0181887 0)
(0.863435 -0.0272738 0)
(0.944957 -0.0270712 0)
(0.876399 -0.035503 0)
(0.953764 -0.0367644 0)
(0.89375 -0.0450451 0)
(0.966497 -0.0477265 0)
(0.916124 -0.0563513 0)
(0.983583 -0.0605289 0)
(0.944345 -0.0698348 0)
(1.00582 -0.0756842 0)
(0.979452 -0.0858297 0)
(1.03393 -0.0937123 5.24782e-34)
(1.02272 -0.104572 0)
(1.06917 -0.115052 -5.17789e-34)
(1.0756 -0.126103 0)
(1.11298 -0.140002 0)
(1.1397 -0.150093 0)
(1.16708 -0.168576 0)
(1.21661 -0.175636 0)
(1.23344 -0.200287 0)
(1.3077 -0.200994 0)
(1.31412 -0.233863 0)
(1.41373 -0.223313 0)
(1.41106 -0.266949 0)
(1.53431 -0.238394 0)
(1.52561 -0.295576 0)
(1.66673 -0.24051 0)
(1.65816 -0.313674 0)
(1.80425 -0.223302 0)
(1.8041 -0.312329 0)
(1.93606 -0.182145 0)
(1.95253 -0.282854 0)
(2.04805 -0.116107 0)
(2.08798 -0.219841 0)
(2.12578 -0.0319768 0)
(2.19154 -0.124291 0)
(2.16027 0.0547735 0)
(2.26224 -0.0140113 0)
(2.1478 0.136795 0)
(2.27064 0.0977781 0)
(2.08816 0.208721 0)
(2.23905 0.204501 0)
(1.98921 0.258572 0)
(2.16794 0.287687 0)
(1.86041 0.28162 0)
(2.05845 0.340219 0)
(1.71272 0.279846 0)
(1.92399 0.361297 0)
(1.55851 0.258331 0)
(1.77543 0.353355 0)
(1.40995 0.224509 0)
(1.6233 0.322559 0)
(1.27633 0.186175 0)
(1.47837 0.278544 0)
(1.1625 0.148722 0)
(1.34868 0.230143 0)
(1.06981 0.115122 0)
(1.2386 0.183192 0)
(0.997056 0.0866996 0)
(1.14932 0.141263 0)
(0.941639 0.063698 0)
(1.07951 0.105999 0)
(0.900443 0.0457242 0)
(1.02644 0.0776595 0)
(0.870441 0.0320775 0)
(0.986997 0.0556604 0)
(0.848986 0.0219735 0)
(0.958243 0.0390529 0)
(0.833896 0.0146691 0)
(0.937636 0.026818 0)
(0.823439 0.00950479 0)
(0.923088 0.0180161 0)
(0.816298 0.00592588 0)
(0.912935 0.011805 0)
(0.811503 0.003504 0)
(0.905942 0.00749291 0)
(0.808337 0.0019102 0)
(0.901197 0.00457297 0)
(0.806288 0.000887233 0)
(0.898012 0.00263845 0)
(0.804997 0.000251803 0)
(0.8959 0.00137998 0)
(0.80421 -0.000123019 0)
(0.894524 0.000584845 0)
(0.803757 -0.000326102 0)
(0.893649 0.000101881 0)
(0.803516 -0.00041688 0)
(0.893104 -0.000174456 0)
(0.803412 -0.000439821 0)
(0.892781 -0.00031715 0)
(0.803391 -0.000427303 0)
(0.892606 -0.00037754 0)
(0.803419 -0.000393243 0)
(0.892523 -0.000389041 0)
(0.80347 -0.000346356 0)
(0.892494 -0.000367276 0)
(0.803532 -0.000296367 0)
(0.8925 -0.000331189 0)
(0.803595 -0.000247313 0)
(0.892523 -0.000287427 0)
(0.803653 -0.000201127 0)
(0.892553 -0.000240978 0)
(0.803703 -0.000158567 0)
(0.892585 -0.000195935 0)
(0.803744 -0.000119541 0)
(0.892614 -0.000152853 0)
(0.803776 -8.36683e-05 0)
(0.892638 -0.00011221 0)
(0.803796 -4.82411e-05 0)
(0.892656 -7.40011e-05 0)
(0.892665 -3.24127e-05 0)
(1.01968 0.0665967 0)
(1.0042 0.0293986 0)
(1.05936 0.11337 0)
(1.02709 0.0806757 0)
(1.09565 0.138648 0)
(1.06405 0.113841 0)
(1.12125 0.14671 0)
(1.09757 0.130718 0)
(1.13732 0.143848 0)
(1.12142 0.135964 0)
(1.14444 0.134964 0)
(1.13917 0.133229 0)
(1.14316 0.123598 0)
(1.14801 0.125988 0)
(1.13556 0.110899 0)
(1.15081 0.115895 0)
(1.124 0.0966551 0)
(1.14949 0.10351 0)
(1.1099 0.0814842 0)
(1.14355 0.090309 0)
(1.09422 0.0666649 0)
(1.13515 0.0774167 0)
(1.07862 0.0527904 0)
(1.12529 0.0644064 0)
(1.06421 0.0398422 0)
(1.11497 0.051456 0)
(1.05175 0.0277295 0)
(1.10502 0.0386984 0)
(1.04169 0.0163788 0)
(1.09601 0.0262772 0)
(1.03432 0.00570852 0)
(1.08849 0.0143675 0)
(1.02988 -0.00444205 0)
(1.0829 0.00292719 0)
(1.02846 -0.0145311 0)
(1.07955 -0.00829944 0)
(1.03013 -0.0250163 0)
(1.07864 -0.0198578 0)
(1.0351 -0.0362149 0)
(1.08041 -0.0320472 0)
(1.04365 -0.0485875 0)
(1.08513 -0.0453114 0)
(1.05605 -0.0627239 0)
(1.09311 -0.0601271 0)
(1.07291 -0.079286 0)
(1.1045 -0.0773853 0)
(1.09495 -0.0989346 5.24782e-34)
(1.12026 -0.0977267 0)
(1.12306 -0.12226 7.54758e-36)
(1.14075 -0.121819 5.24782e-34)
(1.15866 -0.149761 -5.17789e-34)
(1.16771 -0.150661 -5.17789e-34)
(1.20352 -0.181757 0)
(1.20251 -0.184858 0)
(1.25972 -0.218131 0)
(1.24724 -0.224772 0)
(1.32973 -0.258036 0)
(1.30458 -0.270299 0)
(1.41632 -0.299574 0)
(1.37786 -0.320452 0)
(1.52212 -0.339216 0)
(1.47086 -0.372748 0)
(1.6494 -0.370832 0)
(1.58778 -0.422864 0)
(1.79727 -0.384668 0)
(1.73279 -0.461536 0)
(1.95552 -0.369648 0)
(1.89411 -0.470588 0)
(2.10835 -0.316925 0)
(2.05361 -0.435683 0)
(2.23722 -0.225378 0)
(2.19097 -0.348704 0)
(2.32965 -0.105479 0)
(2.29644 -0.21673 0)
(2.37297 0.0297262 0)
(2.35618 -0.0573306 0)
(2.36365 0.16474 0)
(2.35662 0.107101 0)
(2.31529 0.282089 0)
(2.32634 0.252867 0)
(2.23324 0.370358 0)
(2.2688 0.369729 0)
(2.12044 0.4225 0)
(2.18347 0.453027 0)
(1.98554 0.437144 0)
(2.07117 0.49619 0)
(1.83937 0.419475 0)
(1.9413 0.499527 0)
(1.69178 0.378358 0)
(1.80458 0.470147 0)
(1.55087 0.323902 0)
(1.66851 0.419458 0)
(1.4248 0.265354 0)
(1.54065 0.356217 0)
(1.31813 0.20958 0)
(1.42779 0.289859 0)
(1.23175 0.160567 0)
(1.3333 0.227646 0)
(1.16424 0.119893 0)
(1.25725 0.173507 0)
(1.11291 0.0875254 0)
(1.19785 0.128993 0)
(1.07472 0.0625843 0)
(1.15259 0.0938471 0)
(1.04683 0.0438663 0)
(1.11882 0.0669408 0)
(1.02679 0.0301542 0)
(1.0941 0.0468576 0)
(1.01256 0.0203219 0)
(1.07628 0.0322446 0)
(1.00257 0.0133847 0)
(1.06356 0.0218002 0)
(0.995644 0.00857958 0)
(1.05458 0.0144181 0)
(0.990885 0.00532361 0)
(1.04835 0.00933186 0)
(0.987637 0.00315372 0)
(1.04402 0.00588642 0)
(0.985445 0.00173287 0)
(1.04103 0.00357291 0)
(0.983979 0.000826735 0)
(1.03899 0.00205082 0)
(0.98301 0.000267506 0)
(1.0376 0.00107022 0)
(0.982383 -6.30293e-05 0)
(1.03667 0.000453053 0)
(0.981988 -0.000244996 0)
(1.03605 7.81437e-05 0)
(0.981747 -0.000331184 0)
(1.03564 -0.000136874 0)
(0.981606 -0.000356554 0)
(1.03538 -0.000247761 0)
(0.98153 -0.000346943 0)
(1.03522 -0.000291336 0)
(0.981495 -0.000318122 0)
(1.03512 -0.000296803 0)
(0.981485 -0.000277846 0)
(1.03507 -0.000277453 0)
(0.981489 -0.000233319 0)
(1.03504 -0.000244572 0)
(0.981499 -0.00018846 0)
(1.03502 -0.000206061 0)
(0.981511 -0.00014439 0)
(1.03502 -0.000164593 0)
(0.981521 -0.000101966 0)
(1.03502 -0.000122346 0)
(0.981528 -5.80504e-05 0)
(1.03502 -8.06623e-05 0)
(1.03501 -3.26838e-05 0)
(1.01042 0.0441953 0)
(1.00231 0.0189813 0)
(1.03608 0.0802892 0)
(1.01542 0.055017 0)
(1.06736 0.105076 0)
(1.04071 0.082559 0)
(1.09758 0.119232 0)
(1.06996 0.100498 0)
(1.12316 0.12458 0)
(1.09706 0.11038 0)
(1.1426 0.123587 0)
(1.12045 0.113791 0)
(1.15602 0.118105 0)
(1.13921 0.112564 0)
(1.16446 0.108887 0)
(1.15328 0.107456 0)
(1.16869 0.0977862 0)
(1.16395 0.0992889 0)
(1.16894 0.0867899 0)
(1.16965 0.0900507 0)
(1.16618 0.0756327 0)
(1.17247 0.0801801 0)
(1.16148 0.0636674 0)
(1.17286 0.0691032 0)
(1.15569 0.0509812 0)
(1.17144 0.0572536 0)
(1.14925 0.0378256 0)
(1.16826 0.0451348 0)
(1.14276 0.0247009 0)
(1.16435 0.0327645 0)
(1.13696 0.0119056 0)
(1.16016 0.0201657 0)
(1.13245 -0.000638404 0)
(1.15623 0.00744161 0)
(1.12964 -0.013295 0)
(1.15305 -0.00548889 0)
(1.12881 -0.0265086 0)
(1.15098 -0.0190266 0)
(1.13027 -0.0407077 0)
(1.15037 -0.0335115 0)
(1.13441 -0.0563954 0)
(1.15154 -0.0494456 0)
(1.14134 -0.0743664 0)
(1.15487 -0.0670651 0)
(1.15145 -0.0953608 0)
(1.16035 -0.0874901 0)
(1.16558 -0.120015 0)
(1.16889 -0.111854 0)
(1.18483 -0.149604 0)
(1.18122 -0.141069 0)
(1.21071 -0.185256 0)
(1.19882 -0.176541 0)
(1.24511 -0.227564 0)
(1.22311 -0.219265 0)
(1.2907 -0.276944 0)
(1.25647 -0.270364 0)
(1.35103 -0.333181 0)
(1.30229 -0.330626 0)
(1.43064 -0.394645 0)
(1.36527 -0.40006 0)
(1.53488 -0.457875 0)
(1.4513 -0.476988 0)
(1.67025 -0.5148 0)
(1.56913 -0.558237 0)
(1.83214 -0.549428 0)
(1.72193 -0.623422 0)
(1.99667 -0.543339 0)
(1.8702 -0.63512 0)
(2.14383 -0.480555 0)
(2.00292 -0.582847 0)
(2.25771 -0.352275 0)
(2.08601 -0.462577 0)
(2.32327 -0.176321 0)
(2.10545 -0.282293 0)
(2.33891 0.0125308 0)
(2.08369 -0.0729731 0)
(2.321 0.188726 0)
(2.06767 0.125009 0)
(2.27617 0.333324 0)
(2.06576 0.297703 0)
(2.21364 0.442425 0)
(2.0573 0.432253 0)
(2.13108 0.518207 0)
(2.0292 0.535586 0)
(2.02513 0.553286 0)
(1.97213 0.602141 0)
(1.90554 0.546779 0)
(1.89068 0.619118 0)
(1.78186 0.509107 0)
(1.79492 0.593828 0)
(1.65863 0.450995 0)
(1.69352 0.542691 0)
(1.54402 0.381125 0)
(1.59088 0.470826 0)
(1.44338 0.308825 0)
(1.49432 0.390501 0)
(1.35911 0.241449 0)
(1.40991 0.311917 0)
(1.29101 0.183327 0)
(1.33989 0.241604 0)
(1.23758 0.135875 0)
(1.28376 0.182428 0)
(1.19668 0.098639 0)
(1.24 0.13474 0)
(1.16606 0.0702802 0)
(1.2066 0.0975628 0)
(1.14358 0.0492232 0)
(1.1816 0.0693361 0)
(1.12726 0.0339285 0)
(1.16315 0.04857 0)
(1.11555 0.0229869 0)
(1.14979 0.0335073 0)
(1.10729 0.0152899 0)
(1.14015 0.0226752 0)
(1.10149 0.00998995 0)
(1.13335 0.0151361 0)
(1.09742 0.00637962 0)
(1.12855 0.00995969 0)
(1.09459 0.00394828 0)
(1.12515 0.00640193 0)
(1.09263 0.00233896 0)
(1.12278 0.00401221 0)
(1.09127 0.00128942 0)
(1.12111 0.00242447 0)
(1.09035 0.000618954 0)
(1.11995 0.00138088 0)
(1.08971 0.000204162 0)
(1.11915 0.000709046 0)
(1.08929 -4.0275e-05 0)
(1.11859 0.000288595 0)
(1.08901 -0.000172926 0)
(1.11821 3.59356e-05 0)
(1.08882 -0.000234286 0)
(1.11796 -0.000105758 0)
(1.0887 -0.000251169 0)
(1.11778 -0.000176318 0)
(1.08862 -0.000240794 0)
(1.11766 -0.000200914 0)
(1.08858 -0.000214867 0)
(1.11759 -0.000197254 0)
(1.08855 -0.000180428 0)
(1.11754 -0.000176952 0)
(1.08853 -0.000141435 0)
(1.1175 -0.000146905 0)
(1.08852 -0.000100448 0)
(1.11748 -0.000111135 0)
(1.08851 -5.5133e-05 0)
(1.11746 -7.23783e-05 0)
(1.11745 -2.45516e-05 0)
(1.00594 0.0306493 0)
(1.00138 0.0130419 0)
(1.0222 0.0574739 0)
(1.00942 0.0387608 0)
(1.04467 0.0778457 0)
(1.02629 0.0600855 0)
(1.06961 0.0915429 0)
(1.04802 0.0755562 0)
(1.09436 0.0994587 0)
(1.07098 0.0856265 0)
(1.11703 0.102591 0)
(1.09332 0.0911276 0)
(1.13669 0.101742 0)
(1.11403 0.0929063 0)
(1.15268 0.0975898 0)
(1.13233 0.0914584 0)
(1.1647 0.0911761 0)
(1.14776 0.0872697 0)
(1.1733 0.083313 0)
(1.15985 0.081449 0)
(1.17914 0.0738649 0)
(1.16926 0.0743405 0)
(1.18265 0.063018 0)
(1.17628 0.0656005 0)
(1.18394 0.0517435 0)
(1.18099 0.0559569 0)
(1.1834 0.0403544 0)
(1.18345 0.0456775 0)
(1.18171 0.028488 0)
(1.18418 0.0344534 0)
(1.17935 0.0160166 0)
(1.18364 0.0225287 0)
(1.17673 0.00295943 0)
(1.18226 0.0100566 0)
(1.17432 -0.0108192 0)
(1.18047 -0.00306947 0)
(1.17246 -0.0256025 0)
(1.17848 -0.0171747 0)
(1.17152 -0.0417887 0)
(1.17664 -0.0325668 0)
(1.17184 -0.0595779 0)
(1.17521 -0.0497709 0)
(1.1737 -0.0795191 0)
(1.1746 -0.06892 0)
(1.17743 -0.103254 0)
(1.17494 -0.0912181 0)
(1.18405 -0.132238 0)
(1.17703 -0.118474 0)
(1.19462 -0.167393 0)
(1.18144 -0.151637 0)
(1.21027 -0.21001 0)
(1.18911 -0.192195 0)
(1.23311 -0.261697 0)
(1.20163 -0.2421 0)
(1.26622 -0.323996 0)
(1.22144 -0.303477 0)
(1.3141 -0.398009 0)
(1.25228 -0.378511 0)
(1.38311 -0.483735 0)
(1.29991 -0.469065 0)
(1.48184 -0.579733 0)
(1.3719 -0.575718 0)
(1.62035 -0.672124 0)
(1.4808 -0.696753 0)
(1.76513 -0.721736 0)
(1.611 -0.768197 0)
(1.87995 -0.700315 0)
(1.67803 -0.749944 0)
(1.95574 -0.609597 0)
(1.6452 -0.658637 5.79528e-18)
(1.94941 -0.442111 0)
(1.51291 -0.45624 0)
(1.86403 -0.213145 0)
(1.31695 -0.196912 0)
(1.80792 0.0153077 0)
(1.16998 -0.0168676 -6.7852e-18)
(1.81482 0.21621 0)
(1.19507 0.118112 -5.21595e-18)
(1.84003 0.388506 0)
(1.29102 0.272489 0)
(1.8673 0.521247 0)
(1.37697 0.404985 -2.55978e-19)
(1.86639 0.613357 0)
(1.512 0.536495 0)
(1.8338 0.661575 0)
(1.59077 0.634729 0)
(1.77856 0.662748 0)
(1.61566 0.67436 0)
(1.7081 0.625564 0)
(1.60109 0.66429 0)
(1.62618 0.561331 0)
(1.5637 0.624608 0)
(1.5417 0.480045 0)
(1.51219 0.55531 0)
(1.4617 0.394043 0)
(1.45269 0.470506 0)
(1.3914 0.312658 0)
(1.39434 0.382217 0)
(1.33309 0.24136 0)
(1.3426 0.299909 0)
(1.28642 0.181916 0)
(1.29953 0.229103 0)
(1.25001 0.134215 0)
(1.26492 0.171147 0)
(1.22216 0.0970762 0)
(1.23784 0.125407 0)
(1.2012 0.069033 0)
(1.21711 0.0903039 0)
(1.18565 0.0484154 0)
(1.2015 0.0641158 0)
(1.17433 0.0334233 0)
(1.19004 0.0448235 0)
(1.16623 0.0227062 0)
(1.18163 0.0307805 0)
(1.16042 0.015222 0)
(1.17556 0.0209466 0)
(1.15627 0.0100498 0)
(1.17132 0.0141128 0)
(1.15335 0.00651852 0)
(1.16825 0.00932169 0)
(1.15127 0.00414437 0)
(1.16606 0.00608967 0)
(1.1498 0.00255504 0)
(1.16448 0.00389647 0)
(1.14876 0.0015023 0)
(1.16335 0.00241734 0)
(1.14803 0.000817486 0)
(1.16254 0.00143642 0)
(1.14752 0.000382714 0)
(1.16197 0.000798275 0)
(1.14717 0.000116241 0)
(1.16157 0.000391901 0)
(1.14692 -3.81498e-05 0)
(1.16128 0.000141536 0)
(1.14675 -0.000119016 0)
(1.16108 -4.81987e-06 0)
(1.14663 -0.000152382 0)
(1.16093 -8.26231e-05 0)
(1.14655 -0.000155881 0)
(1.16083 -0.000115932 0)
(1.14649 -0.000141101 0)
(1.16076 -0.000121019 0)
(1.14645 -0.000115041 0)
(1.16071 -0.000108223 0)
(1.14643 -8.20437e-05 0)
(1.16068 -8.42387e-05 0)
(1.14641 -4.12763e-05 0)
(1.16065 -5.28537e-05 0)
(1.16063 -1.03982e-05 0)
(1.00373 0.0218355 0)
(1.00091 0.00931151 0)
(1.01458 0.0417005 0)
(1.00629 0.0279083 0)
(1.03063 0.0577533 0)
(1.01807 0.0440393 0)
(1.04969 0.0694588 0)
(1.0341 0.0564989 0)
(1.07003 0.077115 0)
(1.05218 0.0652844 0)
(1.09036 0.0812814 0)
(1.07097 0.0707977 0)
(1.10977 0.0824663 0)
(1.08963 0.0734923 0)
(1.12748 0.0810825 0)
(1.10747 0.0737512 0)
(1.14283 0.0776335 0)
(1.12382 0.0719236 0)
(1.15578 0.0725654 0)
(1.13822 0.0684955 0)
(1.16644 0.0660437 0)
(1.15065 0.063681 0)
(1.17461 0.0583443 0)
(1.16107 0.0574345 0)
(1.18043 0.0496652 0)
(1.16913 0.050133 0)
(1.18422 0.039802 0)
(1.17535 0.0418855 0)
(1.1861 0.0287642 0)
(1.17943 0.0325766 0)
(1.18652 0.0168739 0)
(1.18175 0.0221033 0)
(1.18593 0.00430285 0)
(1.18255 0.010648 0)
(1.18458 -0.00913832 0)
(1.18212 -0.00171373 0)
(1.18262 -0.0238199 0)
(1.18055 -0.015218 0)
(1.18029 -0.0401957 0)
(1.17808 -0.0302403 0)
(1.17781 -0.0586821 0)
(1.17483 -0.0472878 0)
(1.17565 -0.0800912 0)
(1.17105 -0.0667621 0)
(1.1743 -0.105841 0)
(1.16696 -0.0898686 0)
(1.17399 -0.137185 0)
(1.163 -0.118158 0)
(1.1753 -0.175619 0)
(1.15914 -0.152946 8.84712e-33)
(1.17945 -0.223342 0)
(1.15615 -0.196347 -8.77573e-33)
(1.18838 -0.282897 0)
(1.15522 -0.251031 0)
(1.20516 -0.357151 0)
(1.15837 -0.320256 0)
(1.23459 -0.449252 0)
(1.16882 -0.40794 0)
(1.28418 -0.562176 0)
(1.1922 -0.518653 0)
(1.36497 -0.69689 0)
(1.2358 -0.65651 0)
(1.47598 -0.802954 0)
(1.3057 -0.807762 0)
(1.53509 -0.810512 0)
(1.33509 -0.82731 0)
(1.44758 -0.689564 5.79528e-18)
(1.20407 -0.662431 0)
(1.20034 -0.447694 5.79528e-18)
(0.903526 -0.325675 1.27572e-17)
(0.924711 -0.17769 0)
(0.528474 0.151045 0)
(0.627296 -0.0263428 -6.7852e-18)
(0.363946 -0.0518818 0)
(0.561652 0.0222846 -1.20011e-17)
(0.257152 -0.152019 -6.7852e-18)
(0.68935 0.0764453 -5.21595e-18)
(0.296039 -0.198563 -5.21595e-18)
(0.809325 0.186414 -2.55978e-19)
(0.377503 -0.259747 0)
(1.00749 0.363998 -2.55978e-19)
(0.596817 0.132559 -1.10329e-18)
(1.22992 0.535817 0)
(0.805398 0.314064 -4.71036e-17)
(1.36864 0.636416 0)
(1.0151 0.496005 0)
(1.43615 0.669048 0)
(1.17386 0.606852 0)
(1.45815 0.659597 0)
(1.26042 0.64229 0)
(1.45092 0.616525 0)
(1.30397 0.631841 0)
(1.42379 0.544145 0)
(1.32137 0.582436 0)
(1.38642 0.457654 0)
(1.31779 0.507884 0)
(1.3465 0.369089 0)
(1.30205 0.422131 0)
(1.30979 0.287758 0)
(1.2818 0.336618 0)
(1.2785 0.218689 0)
(1.26179 0.260398 0)
(1.25299 0.16274 0)
(1.24401 0.196649 0)
(1.23291 0.118973 0)
(1.22914 0.145494 0)
(1.21747 0.0856707 0)
(1.21721 0.105745 0)
(1.20587 0.0607861 0)
(1.20787 0.0757123 0)
(1.1973 0.0423864 0)
(1.20086 0.0533974 0)
(1.19099 0.0291574 0)
(1.19557 0.0370897 0)
(1.18644 0.019955 0)
(1.19163 0.0254975 0)
(1.18326 0.0135055 0)
(1.18885 0.0172875 0)
(1.18097 0.00898059 0)
(1.1868 0.0116081 0)
(1.17927 0.00588116 0)
(1.18539 0.00779753 0)
(1.17803 0.00377638 0)
(1.18431 0.00513581 0)
(1.17713 0.00236677 0)
(1.18351 0.00331458 0)
(1.17648 0.00143357 0)
(1.18291 0.00208289 0)
(1.17602 0.000822801 0)
(1.18247 0.00126511 0)
(1.17568 0.000430085 0)
(1.18214 0.000728346 0)
(1.17544 0.000185088 0)
(1.1819 0.000383804 0)
(1.17526 3.94133e-05 0)
(1.18173 0.000170045 0)
(1.17514 -4.02772e-05 0)
(1.18159 4.36678e-05 0)
(1.17505 -7.6747e-05 0)
(1.1815 -2.48908e-05 0)
(1.17498 -8.5148e-05 0)
(1.18142 -5.55535e-05 0)
(1.17493 -7.54304e-05 0)
(1.18137 -6.11132e-05 0)
(1.1749 -5.38168e-05 0)
(1.18133 -5.06491e-05 0)
(1.17488 -2.13635e-05 0)
(1.18131 -2.8758e-05 0)
(1.18128 5.2535e-06 0)
(1.00259 0.0157875 0)
(1.00066 0.00671775 0)
(1.01034 0.0304735 0)
(1.00457 0.0201671 0)
(1.02221 0.0428006 0)
(1.01329 0.0321687 0)
(1.03689 0.0522247 0)
(1.02554 0.0418148 0)
(1.05324 0.0588147 0)
(1.0399 0.0489304 0)
(1.07034 0.06285 0)
(1.05542 0.0537055 0)
(1.08742 0.064639 0)
(1.07141 0.0564076 0)
(1.10388 0.0644804 0)
(1.08732 0.0572964 0)
(1.11919 0.0626926 0)
(1.1026 0.0566092 0)
(1.13308 0.0595294 0)
(1.11686 0.0546081 0)
(1.14532 0.0550694 0)
(1.12982 0.0514374 0)
(1.15564 0.0494035 0)
(1.1413 0.0471181 0)
(1.164 0.042632 0)
(1.151 0.0417706 0)
(1.17051 0.0348197 0)
(1.15898 0.0353744 0)
(1.17512 0.0259391 0)
(1.16513 0.0279641 0)
(1.17781 0.0159116 0)
(1.16941 0.0194217 0)
(1.17871 0.00474516 0)
(1.17176 0.00974615 0)
(1.17806 -0.00761608 0)
(1.17225 -0.00106824 0)
(1.17601 -0.0213952 0)
(1.17097 -0.0131657 0)
(1.17263 -0.0370037 0)
(1.16796 -0.0268567 0)
(1.16795 -0.0549791 0)
(1.16319 -0.042615 0)
(1.16224 -0.076113 0)
(1.15665 -0.0610443 0)
(1.15553 -0.101666 0)
(1.14834 -0.0831626 0)
(1.1478 -0.13324 8.84712e-33)
(1.13813 -0.110423 0)
(1.13938 -0.172804 7.99499e-35)
(1.12587 -0.144533 8.84712e-33)
(1.13091 -0.222961 -8.77573e-33)
(1.11164 -0.18787 -8.77573e-33)
(1.12352 -0.287111 0)
(1.09576 -0.24364 0)
(1.11933 -0.369587 0)
(1.07912 -0.316066 0)
(1.12196 -0.475832 0)
(1.06316 -0.410568 0)
(1.13726 -0.611494 0)
(1.05204 -0.533961 0)
(1.17093 -0.766457 0)
(1.04714 -0.690174 0)
(1.17381 -0.833191 0)
(1.03004 -0.810647 0)
(1.01493 -0.660308 0)
(0.865007 -0.668425 0)
(0.719708 -0.312624 6.96193e-18)
(0.439174 0.350528 0)
(0.537879 -0.0627152 6.96193e-18)
(0.224324 0.108838 6.96193e-18)
(0.318748 0 0)
(0 -0.0600834 0)
(0.13977 0 0)
(0 -0.00969858 0)
(0.115453 0 0)
(0 0.00226914 0)
(0.147089 0 0)
(0 0.0121747 0)
(0.349213 0.021206 -8.4731e-19)
(0 0.0106592 0)
(0.398763 0.100664 -4.79509e-17)
(0.151732 -0.133756 -8.4731e-19)
(0.557546 0.268117 -4.71036e-17)
(0.333826 0.0773379 -6.78535e-17)
(0.817668 0.459561 0)
(0.513143 0.235882 -5.45543e-17)
(0.995948 0.575466 0)
(0.723834 0.428572 0)
(1.10614 0.611703 0)
(0.881158 0.532097 0)
(1.17628 0.596581 0)
(0.990538 0.561706 0)
(1.21633 0.546011 0)
(1.07004 0.542386 0)
(1.23455 0.472665 0)
(1.12368 0.489657 0)
(1.23854 0.390068 0)
(1.15703 0.418148 0)
(1.23483 0.309511 0)
(1.17635 0.340327 0)
(1.22799 0.238496 0)
(1.18679 0.267235 0)
(1.22054 0.179509 0)
(1.19209 0.204103 0)
(1.21362 0.132426 0)
(1.19446 0.152412 0)
(1.20767 0.0959877 0)
(1.19522 0.111692 0)
(1.20287 0.0684815 0)
(1.19509 0.0805171 0)
(1.19913 0.0481989 0)
(1.19466 0.0571319 0)
(1.19621 0.033523 0)
(1.19406 0.0400073 0)
(1.19398 0.0229389 0)
(1.19343 0.0277309 0)
(1.19237 0.0154758 0)
(1.19289 0.018902 0)
(1.19123 0.0104882 0)
(1.19236 0.0127416 0)
(1.19041 0.00712293 0)
(1.19204 0.00861832 0)
(1.18979 0.00473789 0)
(1.19176 0.00575966 0)
(1.18929 0.00306992 0)
(1.19151 0.00381453 0)
(1.1889 0.00193438 0)
(1.1913 0.00247365 0)
(1.1886 0.00118154 0)
(1.19112 0.00156703 0)
(1.18836 0.000690405 0)
(1.19096 0.000959431 0)
(1.18819 0.000376318 0)
(1.19083 0.000559883 0)
(1.18805 0.000180836 0)
(1.19072 0.000304463 0)
(1.18795 6.43738e-05 0)
(1.19063 0.000146092 0)
(1.18787 4.39025e-07 0)
(1.19056 5.27125e-05 0)
(1.18782 -2.84566e-05 0)
(1.19051 2.77016e-06 0)
(1.18777 -3.41959e-05 0)
(1.19046 -1.77088e-05 0)
(1.18774 -2.42291e-05 0)
(1.19043 -1.91622e-05 0)
(1.18772 -1.43484e-06 0)
(1.19041 -6.49373e-06 0)
(1.19039 1.81084e-05 0)
(1.00196 0.0113429 0)
(1.00052 0.0047595 0)
(1.00784 0.0220282 0)
(1.00356 0.014287 0)
(1.01707 0.0312291 0)
(1.01041 0.0229391 0)
(1.0288 0.0384887 0)
(1.02023 0.0300868 0)
(1.0422 0.0437562 0)
(1.03204 0.0355249 0)
(1.05659 0.0471787 0)
(1.04512 0.0393128 0)
(1.0714 0.0489646 0)
(1.05891 0.0416021 0)
(1.08611 0.0493195 0)
(1.07298 0.0425844 0)
(1.10029 0.0484328 0)
(1.08686 0.0424276 0)
(1.11363 0.0464509 0)
(1.10019 0.0412748 0)
(1.12584 0.043437 0)
(1.1127 0.0392199 0)
(1.13668 0.0394263 0)
(1.12414 0.0362795 0)
(1.14599 0.0344439 0)
(1.13424 0.0324675 0)
(1.15361 0.0284814 0)
(1.14286 0.0277495 0)
(1.15946 0.0214722 0)
(1.14981 0.0221139 0)
(1.1634 0.0133341 0)
(1.15497 0.0154877 0)
(1.16531 0.00404513 0)
(1.15815 0.00783062 0)
(1.16518 -0.00646965 0)
(1.15919 -0.000934121 0)
(1.16295 -0.0184362 0)
(1.15797 -0.0109422 0)
(1.15856 -0.0322263 0)
(1.15435 -0.0224627 0)
(1.15186 -0.0483719 0)
(1.14814 -0.0359179 0)
(1.14272 -0.0676729 0)
(1.13906 -0.051906 0)
(1.13089 -0.0913189 0)
(1.12677 -0.0713325 0)
(1.11599 -0.120902 0)
(1.11077 -0.0955166 0)
(1.09767 -0.158543 0)
(1.09038 -0.126214 1.17717e-33)
(1.07565 -0.207164 0)
(1.06484 -0.165845 -1.17598e-33)
(1.04978 -0.270743 0)
(1.03329 -0.217774 0)
(1.02031 -0.354563 0)
(0.994893 -0.286596 0)
(0.988115 -0.46523 0)
(0.9484 -0.378372 0)
(0.95378 -0.607 0)
(0.896127 -0.499626 0)
(0.904713 -0.726219 0)
(0.823749 -0.641106 0)
(0.742811 -0.627911 0)
(0.698964 -0.648745 -6.50821e-17)
(1.62397 -0.244602 0)
(0.431269 -0.346527 -1.92297e-17)
(0.4239 0 0)
(0 -0.236277 0)
(0.0475957 0 0)
(0 -0.0191004 0)
(0.000437965 0 0)
(0 1.2115e-05 0)
(0.00118419 0 0)
(0 6.50499e-06 0)
(0.00347844 0 0)
(0 7.44325e-05 0)
(0.00986533 0 0)