/*--------------------------------*- C++ -*----------------------------------*\
| =========                 |                                                 |
| \\      /  F ield         | OpenFOAM: The Open Source CFD Toolbox           |
|  \\    /   O peration     | Version:  2206                                  |
|   \\  /    A nd           | Website:  www.openfoam.com                      |
|    \\/     M anipulation  |                                                 |
\*---------------------------------------------------------------------------*/
FoamFile
{
    version     2.0;
    format      ascii;
    arch        "LSB;label=32;scalar=64";
    class       volScalarField;
    location    "0.6";
    object      epsilon;
}
// * * * * * * * * * * * * * * * * * * * * * * * * * * * * * * * * * * * * * //

dimensions      [0 2 -3 0 0 0 0];

internalField   nonuniform List<scalar> 
1875
(
0.000334285
0.000747374
0.00157616
0.00238288
0.00286234
0.00302012
0.00294166
0.00273326
0.00248219
0.00224144
0.00203544
0.0018713
0.00174735
0.00165831
0.00159801
0.00156084
0.00154206
0.00153901
0.0015502
0.00157528
0.00161514
0.00167205
0.00175008
0.00185567
0.00199844
0.00219245
0.00245808
0.00282468
0.00333401
0.00404432
0.00503354
0.00639863
0.00824356
0.0106465
0.0135972
0.0169142
0.0200153
0.0219047
0.022099
0.0204959
0.0175455
0.0140039
0.0106029
0.0077873
0.00569315
0.0042377
0.00326829
0.0026346
0.00222255
0.00195353
0.00177624
0.00165808
0.00157845
0.0015243
0.00148721
0.00146168
0.00144407
0.00143191
0.0014235
0.00141774
0.0014138
0.00141113
0.00140934
0.00140815
0.00140738
0.00140689
0.0014066
0.00140643
0.00140634
0.0014063
0.0014063
0.00140632
0.00140637
0.00140644
0.00140651
0.000236516
0.000349166
0.000584238
0.000890929
0.00119643
0.00142228
0.00155345
0.00159652
0.00157253
0.00150754
0.00142444
0.00133961
0.00126274
0.00119836
0.00114764
0.00110989
0.00108235
0.00106347
0.00105226
0.00104783
0.00104957
0.00105735
0.00107159
0.00109345
0.00112491
0.00116904
0.00123034
0.00131509
0.00143197
0.0015926
0.00181216
0.00210972
0.00250782
0.00302979
0.00369422
0.00450364
0.00542059
0.00640055
0.00719807
0.00762404
0.00755928
0.00701272
0.00611859
0.00507141
0.00405169
0.0031838
0.00251075
0.00202274
0.00168479
0.00145711
0.00130566
0.00120509
0.00113795
0.00109273
0.00106194
0.00104075
0.00102601
0.00101571
0.00100844
0.00100325
0.00099953
0.000996858
0.00099494
0.000993567
0.000992592
0.000991894
0.000991398
0.000991048
0.000990803
0.000990633
0.000990519
0.000990447
0.000990414
0.000990417
0.0009904
0.000202047
0.000229679
0.000295837
0.000394953
0.000509717
0.000617874
0.000706136
0.000765342
0.000795619
0.000801206
0.000788309
0.000763674
0.000733245
0.000701558
0.000671638
0.000645248
0.000623346
0.000604776
0.000589335
0.000576667
0.000566297
0.000557791
0.000550843
0.000545414
0.000541712
0.000540322
0.000542243
0.00054898
0.00056263
0.000585984
0.000622602
0.000676744
0.000752999
0.000855598
0.000988451
0.00115686
0.00136822
0.00165793
0.00202538
0.00241217
0.00273075
0.00289755
0.00287465
0.00267646
0.00235746
0.00199025
0.00163803
0.00133915
0.00110686
0.000937224
0.000818376
0.000737145
0.000682291
0.000645365
0.000620431
0.000603467
0.00059182
0.00058375
0.000578103
0.000574111
0.00057129
0.000569276
0.000567812
0.000566742
0.000565963
0.000565398
0.000564986
0.000564686
0.000564467
0.00056431
0.000564197
0.00056412
0.000564074
0.000564068
0.000564138
0.000190584
0.000189767
0.000203121
0.000230608
0.000268493
0.000309693
0.000347719
0.000377972
0.000398658
0.000409601
0.00041121
0.000405438
0.000394455
0.000380331
0.000364828
0.000349356
0.000335141
0.000322561
0.000311316
0.000301298
0.000292297
0.000284067
0.000276366
0.000269066
0.000262179
0.000255901
0.000250616
0.000246987
0.000246037
0.000249252
0.000258562
0.000275797
0.000300986
0.000331301
0.000362318
0.000395258
0.00043578
0.000484579
0.000594109
0.000764582
0.000967043
0.00115335
0.00127998
0.00131952
0.00127004
0.00115255
0.000998993
0.000840655
0.000699305
0.000584957
0.000498545
0.000436173
0.000392453
0.000362339
0.000341779
0.000327771
0.000318206
0.00031165
0.000307125
0.000303976
0.00030177
0.000300215
0.000299121
0.000298343
0.00029778
0.000297373
0.000297078
0.000296864
0.000296708
0.000296596
0.000296514
0.000296457
0.000296421
0.000296417
0.00029651
0.000187008
0.000176335
0.000171992
0.000174207
0.000182019
0.000193339
0.00020567
0.000216772
0.000225047
0.0002297
0.00023052
0.000227939
0.000222679
0.000215519
0.000207143
0.000198282
0.000189583
0.000181782
0.000174789
0.000168526
0.000162887
0.000157753
0.000152992
0.000148502
0.000144421
0.000140817
0.000138005
0.00013659
0.000137661
0.000143051
0.000155193
0.000175031
0.000197867
0.000215044
0.000215646
0.000217055
0.000229608
0.000251569
0.000287352
0.000347943
0.000433812
0.000536246
0.000631796
0.000695109
0.00071192
0.000682786
0.000618645
0.000536575
0.00045291
0.000378597
0.00031839
0.000272595
0.000239234
0.000215628
0.000199239
0.000187988
0.000180301
0.00017506
0.000171478
0.000169019
0.000167319
0.000166138
0.000165312
0.00016473
0.000164323
0.000164035
0.000163828
0.00016368
0.000163573
0.000163497
0.000163441
0.000163402
0.000163377
0.000163372
0.000163434
0.000185877
0.000171988
0.000161543
0.000154638
0.000150967
0.000149827
0.000150261
0.000151246
0.000151913
0.0001517
0.000150313
0.000147675
0.000143944
0.000139359
0.000134209
0.000128824
0.000123522
0.000118686
0.000114439
0.000110735
0.000107518
0.000104731
0.000102278
0.000100162
9.84749e-05
9.7393e-05
9.73167e-05
9.90808e-05
0.000104375
0.000116236
0.000138139
0.000166735
0.000188892
0.000199076
0.000167905
0.000181515
0.000284132
0.000432443
0.000505267
0.000508384
0.000493497
0.00048699
0.000489543
0.000491199
0.000483888
0.000463351
0.000424243
0.000372669
0.000317337
0.000265797
0.000222421
0.000188458
0.000163197
0.000145077
0.000132401
0.000123703
0.000117788
0.000113793
0.000111101
0.000109282
0.000108048
0.000107205
0.000106625
0.000106223
0.000105942
0.000105745
0.000105608
0.000105511
0.000105441
0.000105392
0.000105357
0.000105332
0.000105315
0.000105309
0.000105336
0.000185487
0.000170545
0.00015804
0.00014788
0.000139879
0.000133733
0.000129031
0.000125305
0.000122109
0.0001191
0.000116049
0.000112819
0.00010939
0.000105798
0.00010216
9.85873e-05
9.51959e-05
9.21252e-05
8.94865e-05
8.72614e-05
8.54201e-05
8.39338e-05
8.27601e-05
8.20071e-05
8.17707e-05
8.2292e-05
8.41673e-05
8.87028e-05
9.87025e-05
0.000119132
0.000153109
0.00018223
0.000203218
0.000223365
0.000103863
0.000143669
0.000229563
0.000345863
0.000288828
0.000170954
0.000114155
0.000447893
0.000508444
0.000479114
0.000429467
0.000385241
0.000340344
0.00029389
0.000248446
0.000207359
0.000173044
0.000146239
0.000126346
0.00011214
0.00010228
9.55777e-05
9.10852e-05
8.80994e-05
8.6132e-05
8.48363e-05
8.39794e-05
8.34091e-05
8.30265e-05
8.27675e-05
8.25905e-05
8.24684e-05
8.23837e-05
8.23244e-05
8.22832e-05
8.2254e-05
8.22332e-05
8.22185e-05
8.22084e-05
8.22025e-05
8.22058e-05
0.000185337
0.000170027
0.000156813
0.000145505
0.000135911
0.000127823
0.000121011
0.000115231
0.000110244
0.000105844
0.000101873
9.82142e-05
9.48038e-05
9.16154e-05
8.86503e-05
8.59287e-05
8.3479e-05
8.13407e-05
7.95585e-05
7.81187e-05
7.70049e-05
7.62096e-05
7.57498e-05
7.57046e-05
7.62389e-05
7.77316e-05
8.10527e-05
8.82102e-05
0.000103623
0.000134463
0.000178396
0.000190383
0.000239776
0.000185385
0.000515667
0.0002
0.0002
0.0002
0.0002
0.0002
0.000499107
0.000193142
0.000438916
0.000453396
0.000406224
0.000353234
0.000303082
0.000256124
0.000213688
0.000177237
0.000147707
0.000125098
0.000108576
9.69397e-05
8.8969e-05
8.3647e-05
8.01454e-05
7.78703e-05
7.64046e-05
7.54643e-05
7.48599e-05
7.44709e-05
7.42192e-05
7.40544e-05
7.39453e-05
7.38723e-05
7.38228e-05
7.37889e-05
7.37655e-05
7.37492e-05
7.37378e-05
7.37298e-05
7.37239e-05
7.37188e-05
7.37094e-05
0.00018527
0.000169817
0.00015634
0.000144612
0.000134428
0.000125599
0.000117951
0.000111319
0.000105551
0.000100513
9.60902e-05
9.21903e-05
8.87428e-05
8.56978e-05
8.30206e-05
8.06868e-05
7.86798e-05
7.69928e-05
7.56296e-05
7.45748e-05
7.38171e-05
7.33604e-05
7.32409e-05
7.35582e-05
7.45398e-05
7.67081e-05
8.1289e-05
9.1198e-05
0.000112854
0.000155528
0.000204383
0.000200764
0.000166638
0.0002
0.0002
0.0002
0.0002
0.0002
0.0002
0.0002
0.0002
0.00114249
0.000170254
0.000310724
0.000329273
0.000305321
0.000268474
0.000228769
0.000191468
0.000159278
0.000133411
0.000113813
9.96371e-05
8.97558e-05
8.3066e-05
7.86443e-05
7.57756e-05
7.39422e-05
7.27815e-05
7.20573e-05
7.16053e-05
7.1323e-05
7.11456e-05
7.10335e-05
7.0962e-05
7.09159e-05
7.08858e-05
7.08657e-05
7.08522e-05
7.08431e-05
7.08367e-05
7.08323e-05
7.08288e-05
7.08242e-05
7.08089e-05
0.000185238
0.00016972
0.000156133
0.000144236
0.000133819
0.000124699
0.000116718
0.00010974
0.000103645
9.83282e-05
9.36996e-05
8.96797e-05
8.62002e-05
8.32035e-05
8.06404e-05
7.84691e-05
7.66544e-05
7.51688e-05
7.39952e-05
7.31151e-05
7.25194e-05
7.22183e-05
7.22606e-05
7.27722e-05
7.40437e-05
7.6752e-05
8.25173e-05
9.52719e-05
0.000123651
0.000179408
0.00022784
9.50705e-05
0.000469519
0.0002
0.0002
0.0002
0.0002
0.0002
0.0002
0.0002
0.0002
0.0002
0.000369121
8.3222e-05
0.000208891
0.000234513
0.000224317
0.000199796
0.000171679
0.000145371
0.000123549
0.000106776
9.45675e-05
8.60398e-05
8.02695e-05
7.6463e-05
7.40041e-05
7.24438e-05
7.14677e-05
7.08643e-05
7.04944e-05
7.02686e-05
7.01307e-05
7.00462e-05
6.9994e-05
6.99613e-05
6.99406e-05
6.99273e-05
6.99186e-05
6.99129e-05
6.9909e-05
6.99063e-05
6.99039e-05
6.98997e-05
6.9882e-05
0.000185221
0.000169672
0.000156033
0.00014406
0.000133543
0.0001243
0.000116181
0.000109059
0.000102827
9.73918e-05
9.26736e-05
8.85987e-05
8.51008e-05
8.2119e-05
7.9599e-05
7.74916e-05
7.57543e-05
7.43514e-05
7.32558e-05
7.24473e-05
7.19178e-05
7.16823e-05
7.17998e-05
7.24201e-05
7.38922e-05
7.70366e-05
8.38435e-05
9.92064e-05
0.000134105
0.000204762
0.000270278
0.000178523
0.0002
0.0002
0.0002
0.0002
0.0002
0.0002
0.0002
0.0002
0.0002
0.0002
0.0002
9.18933e-05
0.000138176
0.000173913
0.000183405
0.000173192
0.000154424
0.000134132
0.000116182
0.000101945
9.13823e-05
8.3911e-05
7.8813e-05
7.54314e-05
7.32407e-05
7.18499e-05
7.09819e-05
7.04479e-05
7.01231e-05
6.9927e-05
6.98091e-05
6.97381e-05
6.96952e-05
6.9669e-05
6.96528e-05
6.96427e-05
6.96362e-05
6.9632e-05
6.96292e-05
6.96273e-05
6.96255e-05
6.96214e-05
6.96028e-05
0.000185212
0.000169648
0.000155985
0.000143978
0.000133417
0.000124122
0.000115945
0.000108763
0.000102474
9.69909e-05
9.22357e-05
8.8138e-05
8.46316e-05
8.16548e-05
7.91504e-05
7.70667e-05
7.53577e-05
7.39851e-05
7.29176e-05
7.21336e-05
7.1626e-05
7.1413e-05
7.15612e-05
7.22376e-05
7.38333e-05
7.72728e-05
8.48115e-05
0.000102037
0.000141807
0.000223679
0.000301414
0.00033489
0.0002
0.0002
0.0002
0.0002
0.0002
0.0002
0.0002
0.0002
0.0002
0.0002
0.0002
0.000110013
0.000108358
0.000138268
0.000156716
0.000155371
0.000142798
0.000126659
0.000111385
9.89126e-05
8.94719e-05
8.2704e-05
7.80413e-05
7.49263e-05
7.28981e-05
7.16062e-05
7.07988e-05
7.03022e-05
7.00007e-05
6.98194e-05
6.9711e-05
6.96463e-05
6.96075e-05
6.95842e-05
6.95699e-05
6.95611e-05
6.95556e-05
6.9552e-05
6.95497e-05
6.95481e-05
6.95465e-05
6.95426e-05
6.95237e-05
0.00018521
0.000169641
0.000155971
0.000143954
0.000133379
0.000124069
0.000115876
0.000108678
0.000102373
9.68768e-05
9.21116e-05
8.80079e-05
8.44995e-05
8.15244e-05
7.90245e-05
7.69473e-05
7.52456e-05
7.38802e-05
7.28183e-05
7.20385e-05
7.15341e-05
7.13245e-05
7.14789e-05
7.21708e-05
7.38068e-05
7.73496e-05
8.51469e-05
0.000102978
0.000143834
0.000225523
0.000303765
0.000422893
0.0002
0.0002
0.0002
0.0002
0.0002
0.0002
0.0002
0.0002
0.0002
0.0002
0.0002
0.000121966
0.000101546
0.000126053
0.000146344
0.000147977
0.000137627
0.000123077
0.00010905
9.74312e-05
8.85438e-05
8.21309e-05
7.76914e-05
7.47135e-05
7.27673e-05
7.15236e-05
7.07439e-05
7.02631e-05
6.99704e-05
6.97941e-05
6.96885e-05
6.96254e-05
6.95876e-05
6.95648e-05
6.95509e-05
6.95423e-05
6.95369e-05
6.95334e-05
6.95311e-05
6.95295e-05
6.95279e-05
6.9524e-05
6.9505e-05
0.000185212
0.000169648
0.000155985
0.000143978
0.000133417
0.000124121
0.000115944
0.000108762
0.000102473
9.69895e-05
9.22339e-05
8.81358e-05
8.46293e-05
8.16526e-05
7.91486e-05
7.70654e-05
7.53566e-05
7.39837e-05
7.29147e-05
7.21286e-05
7.16181e-05
7.14013e-05
7.15449e-05
7.22159e-05
7.38049e-05
7.7234e-05
8.4748e-05
0.000101901
0.000141474
0.000223232
0.000302803
0.000338389
0.0002
0.0002
0.0002
0.0002
0.0002
0.0002
0.0002
0.0002
0.0002
0.0002
0.0002
0.000107996
0.000106732
0.000135413
0.000152724
0.000151135
0.000139009
0.000123634
0.000109163
9.73861e-05
8.84795e-05
8.20893e-05
7.76768e-05
7.47191e-05
7.27847e-05
7.15462e-05
7.07675e-05
7.02853e-05
6.99903e-05
6.98115e-05
6.97037e-05
6.96387e-05
6.95993e-05
6.95753e-05
6.95606e-05
6.95513e-05
6.95454e-05
6.95416e-05
6.95391e-05
6.95373e-05
6.95356e-05
6.95315e-05
6.95124e-05
0.000185221
0.000169672
0.000156033
0.00014406
0.000133543
0.000124299
0.000116179
0.000109054
0.000102819
9.73791e-05
9.26555e-05
8.85751e-05
8.50721e-05
8.20866e-05
7.95642e-05
7.7456e-05
7.5719e-05
7.43165e-05
7.32203e-05
7.241e-05
7.18771e-05
7.16364e-05
7.1747e-05
7.23587e-05
7.38198e-05
7.69464e-05
8.37089e-05
9.89357e-05
0.000133462
0.000203793
0.000271884
0.00018213
0.0002
0.0002
0.0002
0.0002
0.0002
0.0002
0.0002
0.0002
0.0002
0.0002
0.0002
8.82773e-05
0.000133347
0.000165907
0.000173655
0.000163665
0.000146283
0.000127794
0.000111584
9.87917e-05
8.93173e-05
8.26102e-05
7.80192e-05
7.49585e-05
7.29625e-05
7.16853e-05
7.0881e-05
7.03812e-05
7.00738e-05
6.98861e-05
6.97718e-05
6.97021e-05
6.96594e-05
6.9633e-05
6.96164e-05
6.96059e-05
6.9599e-05
6.95946e-05
6.95916e-05
6.95895e-05
6.95875e-05
6.95833e-05
6.95641e-05
0.000185238
0.00016972
0.000156133
0.000144236
0.000133818
0.000124694
0.000116708
0.00010972
0.00010361
9.82746e-05
9.36237e-05
8.95803e-05
8.6079e-05
8.30644e-05
8.04892e-05
7.83121e-05
7.64975e-05
7.5016e-05
7.38474e-05
7.29719e-05
7.2379e-05
7.20782e-05
7.21181e-05
7.26245e-05
7.38877e-05
7.65801e-05
8.23013e-05
9.49143e-05
0.000122913
0.000178375
0.000229451
9.72462e-05
0.000483038
0.0002
0.0002
0.0002
0.0002
0.0002
0.0002
0.0002
0.0002
0.0002
0.000351242
7.80139e-05
0.000197118
0.000217416
0.0002065
0.00018372
0.000158446
0.000135221
0.000116195
0.00010169
9.11788e-05
8.38443e-05
7.88725e-05
7.55791e-05
7.34388e-05
7.20707e-05
7.12076e-05
7.06693e-05
7.03362e-05
7.01309e-05
7.00044e-05
6.99261e-05
6.98774e-05
6.98466e-05
6.9827e-05
6.98143e-05
6.9806e-05
6.98004e-05
6.97967e-05
6.9794e-05
6.97917e-05
6.97873e-05
6.9768e-05
0.00018527
0.000169817
0.00015634
0.000144611
0.000134423
0.000125584
0.000117917
0.000111255
0.000105442
0.000100345
9.5856e-05
9.18873e-05
8.83764e-05
8.52798e-05
8.25673e-05
8.02167e-05
7.82105e-05
7.65377e-05
7.51957e-05
7.41643e-05
7.34291e-05
7.2992e-05
7.2888e-05
7.32167e-05
7.42054e-05
7.63739e-05
8.09323e-05
9.07418e-05
0.000112124
0.000154657
0.000205916
0.000206178
0.000170871
0.0002
0.0002
0.0002
0.0002
0.0002
0.0002
0.0002
0.0002
0.00109553
0.000159684
0.000294427
0.000303646
0.000277771
0.000242528
0.000206193
0.000173027
0.000145038
0.00012294
0.000106412
9.45595e-05
8.63353e-05
8.07747e-05
7.70953e-05
7.47011e-05
7.31647e-05
7.21874e-05
7.15753e-05
7.11916e-05
7.09513e-05
7.07998e-05
7.07039e-05
7.06428e-05
7.06034e-05
7.05777e-05
7.05607e-05
7.05493e-05
7.05416e-05
7.05363e-05
7.05325e-05
7.05295e-05
7.05245e-05
7.05051e-05
0.000185337
0.000170027
0.000156813
0.000145502
0.000135897
0.000127782
0.000120919
0.000115056
0.000109952
0.000105407
0.000101272
9.74498e-05
9.38913e-05
9.05851e-05
8.75419e-05
8.47852e-05
8.23409e-05
8.02394e-05
7.85129e-05
7.71365e-05
7.60874e-05
7.53536e-05
7.49492e-05
7.49528e-05
7.55298e-05
7.70581e-05
8.03989e-05
8.75257e-05
0.000102793
0.000133531
0.000178851
0.000195331
0.000248791
0.00019278
0.000535852
0.0002
0.0002
0.0002
0.0002
0.0002
0.000483371
0.000184202
0.000419879
0.000423073
0.000372467
0.00031934
0.000271056
0.000227645
0.000189859
0.000158398
0.000133515
0.000114791
0.000101268
9.18098e-05
8.5352e-05
8.10465e-05
7.82121e-05
7.63683e-05
7.5179e-05
7.44153e-05
7.39243e-05
7.36086e-05
7.34048e-05
7.32718e-05
7.31841e-05
7.31256e-05
7.30863e-05
7.30594e-05
7.3041e-05
7.30283e-05
7.30195e-05
7.30132e-05
7.30084e-05
7.30023e-05
7.29829e-05
0.000185487
0.000170546
0.00015804
0.000147872
0.000139845
0.000133635
0.000128812
0.000124894
0.000121437
0.000118113
0.000114721
0.000111157
0.000107438
0.000103624
9.98456e-05
9.62172e-05
9.2847e-05
8.98564e-05
8.73345e-05
8.52415e-05
8.3536e-05
8.2181e-05
8.11294e-05
8.04873e-05
8.03515e-05
8.09646e-05
8.29202e-05
8.75075e-05
9.74965e-05
0.000117931
0.000152742
0.000184844
0.000210775
0.000235442
0.000108871
0.000151507
0.000240587
0.000356894
0.000291087
0.000167228
0.000108772
0.000432994
0.000480496
0.000445434
0.00039153
0.000344917
0.000300404
0.000257293
0.000217275
0.000182412
0.000154016
0.000132192
0.00011615
0.000104748
9.68446e-05
9.1469e-05
8.78587e-05
8.5453e-05
8.38654e-05
8.28185e-05
8.21256e-05
8.16645e-05
8.13555e-05
8.11465e-05
8.10041e-05
8.09061e-05
8.08384e-05
8.07912e-05
8.07585e-05
8.07356e-05
8.07193e-05
8.07077e-05
8.06992e-05
8.0691e-05
8.06724e-05
0.000185877
0.00017199
0.000161544
0.000154624
0.000150899
0.000149625
0.000149808
0.000150406
0.000150559
0.000149749
0.00014774
0.00014452
0.000140305
0.000135371
0.000130022
0.000124584
0.00011935
0.000114672
0.000110634
0.000107159
0.000104173
0.000101607
9.93581e-05
9.7428e-05
9.59093e-05
9.49816e-05
9.50463e-05
9.69331e-05
0.00010232
0.000114286
0.00013671
0.000167185
0.000193168
0.000208037
0.000177555
0.000189735
0.000293799
0.000442805
0.000512899
0.000510859
0.000487775
0.000468499
0.000458955
0.000448608
0.000431681
0.000406192
0.000367922
0.000322028
0.000275136
0.000232645
0.000197432
0.000170062
0.000149739
0.000135129
0.00012486
0.000117775
0.000112926
0.000109631
0.000107398
0.000105883
0.000104851
0.000104145
0.000103657
0.000103319
0.000103084
0.000102919
0.000102804
0.000102723
0.000102665
0.000102624
0.000102595
0.000102575
0.00010256
0.000102549
0.000102534
0.000187009
0.00017634
0.000171999
0.000174196
0.000181918
0.000192997
0.000204864
0.000215258
0.000222625
0.000226264
0.000226084
0.000222631
0.000216704
0.000209119
0.00020056
0.000191725
0.000183211
0.0001757
0.000169038
0.000163116
0.000157804
0.000152969
0.000148474
0.000144219
0.00014034
0.000136911
0.00013425
0.00013296
0.000134128
0.000139608
0.00015201
0.0001728
0.000197914
0.000218418
0.00022119
0.000222542
0.000234144
0.000255207
0.000288074
0.000341271
0.000413569
0.000496574
0.000570424
0.000615083
0.000621137
0.000591082
0.000534772
0.000465961
0.000397244
0.00033676
0.000287849
0.000250525
0.00022315
0.000203604
0.000189899
0.000180393
0.000173834
0.000169322
0.000166216
0.000164069
0.000162579
0.000161539
0.000160811
0.000160297
0.000159938
0.000159685
0.000159503
0.000159373
0.000159279
0.000159212
0.000159164
0.00015913
0.000159107
0.000159093
0.000159089
0.000190585
0.000189775
0.000203151
0.000230649
0.000268427
0.000309234
0.000346453
0.000375489
0.000394684
0.000404072
0.000404285
0.000397436
0.000385769
0.000371351
0.000355881
0.000340679
0.000326876
0.000314763
0.000303978
0.000294384
0.000285752
0.000277826
0.000270364
0.000263243
0.000256478
0.000250264
0.000244986
0.000241298
0.000240212
0.000243208
0.000252263
0.000269396
0.000294959
0.00032616
0.000357688
0.000389491
0.000426576
0.000469033
0.000566804
0.00071624
0.000888824
0.00104171
0.00113997
0.00116408
0.00111559
0.00101352
0.000884067
0.000752036
0.000634432
0.000538996
0.000466382
0.00041347
0.00037597
0.000349835
0.000331783
0.000319349
0.000310775
0.00030485
0.000300732
0.000297852
0.000295827
0.000294394
0.000293386
0.00029267
0.00029215
0.000291775
0.000291504
0.000291307
0.000291165
0.000291061
0.000290987
0.000290935
0.000290901
0.000290888
0.000290913
0.000202046
0.000229695
0.000295944
0.000395199
0.000509891
0.000617397
0.000704247
0.000761427
0.000789451
0.000792987
0.000778557
0.000753038
0.000722339
0.000690858
0.000661445
0.000635701
0.000614459
0.000596474
0.000581527
0.000569239
0.000559135
0.000550781
0.000543877
0.000538386
0.000534512
0.000532825
0.000534301
0.000540401
0.000553161
0.000575284
0.000610212
0.000662079
0.000735302
0.000833728
0.000960307
0.00111867
0.00131423
0.00158016
0.00191227
0.002251
0.00251882
0.00264681
0.00260933
0.00242435
0.00214057
0.00181929
0.00151257
0.00125186
0.0010481
0.00089807
0.000791932
0.000718626
0.000668602
0.000634592
0.000611421
0.000595535
0.000584557
0.000576912
0.00057154
0.000567732
0.000565036
0.000563109
0.000561707
0.000560681
0.000559934
0.000559392
0.000558996
0.000558708
0.000558498
0.000558346
0.000558238
0.000558164
0.000558125
0.00055813
0.000558228
0.000236514
0.000349227
0.000584609
0.000891753
0.00119717
0.00142171
0.00155037
0.00159041
0.00156367
0.00149674
0.00141271
0.00132778
0.00125138
0.00118778
0.0011379
0.00110092
0.001074
0.00105558
0.00104468
0.0010404
0.00104214
0.00104978
0.00106375
0.00108517
0.00111599
0.00115925
0.00121934
0.00130242
0.00141697
0.00157429
0.00178911
0.00207976
0.00246769
0.00297454
0.00361638
0.00439225
0.00526115
0.00618133
0.00690825
0.00727073
0.00717029
0.0066292
0.00578001
0.00480186
0.00385569
0.00305108
0.00242521
0.00196888
0.0016507
0.00143478
0.00129011
0.00119341
0.00112849
0.00108456
0.00105454
0.00103381
0.00101937
0.00100926
0.00100211
0.000997002
0.000993333
0.000990697
0.000988805
0.000987449
0.000986484
0.000985792
0.000985299
0.000984952
0.000984707
0.000984537
0.000984424
0.00098436
0.000984351
0.000984431
0.000984671
0.000334359
0.000747841
0.00157761
0.00238469
0.0028627
0.0030174
0.00293532
0.00272385
0.00247086
0.00222933
0.00202343
0.00185988
0.0017367
0.00164842
0.00158875
0.00155202
0.00153351
0.00153058
0.00154172
0.00156662
0.00160613
0.00166253
0.00173987
0.00184453
0.00198606
0.00217842
0.00244186
0.00280549
0.00331085
0.00401579
0.00499783
0.00635346
0.00818633
0.0105746
0.0135084
0.0168075
0.019891
0.0217602
0.021941
0.0203363
0.017398
0.0138795
0.0105068
0.00771846
0.00564649
0.00420677
0.00324745
0.00261973
0.00221105
0.00194387
0.00176759
0.00165
0.0015707
0.00151676
0.0014798
0.00145436
0.0014368
0.00142468
0.00141631
0.00141056
0.00140664
0.00140397
0.00140219
0.001401
0.00140023
0.00139975
0.00139945
0.00139928
0.00139919
0.00139915
0.00139915
0.0013992
0.00139931
0.00139954
0.00139995
)
;

boundaryField
{
    ibCylinder
    {
        type            immersedBoundaryEpsilonWallFunction;
        patchType       immersedBoundary;
        blending        stepwise;
        setDeadValue    true;
        deadValue       0.0002;
        value           nonuniform List<scalar> 0();
    }
    in
    {
        type            fixedValue;
        value           uniform 0.0002;
    }
    out
    {
        type            inletOutlet;
        inletValue      uniform 0.0002;
        value           nonuniform List<scalar> 
25
(
0.00140651
0.0009904
0.000564138
0.00029651
0.000163434
0.000105336
8.22058e-05
7.37094e-05
7.08089e-05
6.9882e-05
6.96028e-05
6.95237e-05
6.9505e-05
6.95124e-05
6.95641e-05
6.9768e-05
7.05051e-05
7.29829e-05
8.06724e-05
0.000102534
0.000159089
0.000290913
0.000558228
0.000984671
0.00139995
)
;
    }
    top
    {
        type            zeroGradient;
    }
    bottom
    {
        type            zeroGradient;
    }
    frontAndBack
    {
        type            empty;
    }
}


// ************************************************************************* //
