/*--------------------------------*- C++ -*----------------------------------*\
| =========                 |                                                 |
| \\      /  F ield         | OpenFOAM: The Open Source CFD Toolbox           |
|  \\    /   O peration     | Version:  2206                                  |
|   \\  /    A nd           | Website:  www.openfoam.com                      |
|    \\/     M anipulation  |                                                 |
\*---------------------------------------------------------------------------*/
FoamFile
{
    version     2.0;
    format      ascii;
    arch        "LSB;label=32;scalar=64";
    class       volScalarField;
    location    "0.6";
    object      k;
}
// * * * * * * * * * * * * * * * * * * * * * * * * * * * * * * * * * * * * * //

dimensions      [0 2 -2 0 0 0 0];

internalField   nonuniform List<scalar> 
1875
(
0.00020281
0.00033238
0.000559291
0.000783709
0.000942844
0.00102988
0.00105375
0.00103354
0.000989883
0.000938514
0.000889029
0.000846241
0.000811898
0.000786029
0.0007678
0.000756101
0.000749811
0.000748334
0.000751302
0.000758615
0.00077048
0.000787468
0.000810606
0.000841494
0.000882441
0.000936656
0.00100849
0.00110374
0.00122998
0.00139683
0.00161588
0.00190002
0.00226105
0.00270484
0.00322316
0.00378378
0.00429629
0.00460672
0.00464999
0.00440976
0.00394331
0.00335439
0.00275376
0.00222046
0.00179195
0.00146905
0.00123611
0.00107209
0.000958235
0.00087973
0.000825691
0.000788448
0.000762718
0.000744902
0.000732539
0.000723948
0.000717981
0.000713843
0.00071097
0.000708994
0.000707641
0.000706721
0.000706102
0.000705692
0.000705425
0.000705256
0.000705153
0.000705093
0.000705062
0.000705049
0.000705049
0.000705059
0.000705083
0.000705127
0.000705185
0.000164949
0.000201893
0.000273916
0.000369642
0.000472042
0.000558489
0.000621319
0.000658197
0.000671966
0.00066865
0.000654864
0.000636219
0.000616703
0.00059875
0.000583578
0.000571597
0.000562211
0.000555206
0.00055047
0.000547797
0.000547006
0.00054801
0.000550865
0.000555822
0.000563351
0.000574192
0.000589406
0.000610435
0.000639166
0.000677993
0.000729855
0.0007982
0.000886838
0.000999444
0.00113887
0.00130559
0.00149392
0.00169612
0.00186533
0.00196877
0.00198265
0.00190249
0.00174569
0.00154375
0.0013308
0.00113546
0.00097247
0.00084567
0.000751892
0.00068487
0.000637958
0.000605469
0.000583046
0.000567554
0.000556807
0.000549306
0.000544043
0.00054034
0.000537715
0.000535835
0.000534482
0.000533508
0.000532808
0.000532307
0.00053195
0.000531695
0.000531513
0.000531386
0.000531296
0.000531234
0.000531193
0.000531169
0.000531163
0.000531188
0.000531276
0.000151286
0.000160666
0.000182024
0.000214846
0.000255292
0.000297022
0.000335191
0.000365447
0.000386353
0.000398078
0.000401889
0.000399725
0.000393638
0.000385442
0.000376541
0.000367915
0.000360218
0.000353142
0.000346799
0.000341182
0.000336181
0.000331656
0.000327484
0.00032363
0.000320144
0.000317218
0.000315207
0.000314666
0.00031639
0.000321451
0.00033119
0.000347021
0.000369915
0.000399902
0.000436367
0.000479764
0.000532448
0.000603965
0.000694297
0.000791851
0.000878041
0.00093332
0.000946187
0.000915607
0.000850177
0.000764939
0.000675525
0.000593616
0.00052542
0.00047242
0.000433168
0.000405011
0.000385206
0.000371424
0.000361874
0.000355248
0.000350636
0.000347411
0.000345141
0.000343533
0.000342396
0.000341585
0.000340995
0.000340565
0.000340252
0.000340026
0.000339861
0.000339741
0.000339655
0.000339592
0.000339548
0.000339519
0.000339504
0.000339517
0.000339609
0.000146459
0.000145927
0.000150107
0.000159232
0.000172693
0.000188547
0.000204621
0.000219008
0.00023059
0.000238759
0.000243166
0.000244213
0.000242548
0.000238922
0.000234071
0.000228658
0.000223317
0.000218288
0.000213511
0.000209013
0.000204756
0.000200672
0.000196678
0.000192744
0.000188913
0.00018533
0.000182274
0.000180226
0.000179987
0.000182801
0.000190364
0.000204173
0.00022365
0.000244971
0.000262328
0.000274148
0.000283517
0.000291082
0.000316413
0.000360698
0.000416472
0.000471105
0.000512567
0.000531874
0.00052604
0.000498415
0.000456441
0.000408938
0.000363245
0.000323805
0.000292241
0.00026828
0.000250739
0.000238211
0.000229402
0.000223264
0.000219003
0.00021605
0.000213999
0.000212568
0.000211566
0.00021086
0.000210367
0.000210018
0.000209767
0.000209586
0.000209456
0.000209362
0.000209295
0.000209246
0.000209211
0.000209187
0.000209173
0.000209179
0.000209254
0.000144857
0.000140483
0.00013841
0.000138699
0.000141143
0.000145195
0.000150074
0.000154956
0.000159122
0.000162088
0.000163573
0.000163599
0.000162353
0.000160091
0.000157068
0.000153605
0.000150018
0.000146686
0.000143585
0.000140701
0.00013801
0.000135479
0.000133072
0.000130778
0.000128749
0.000127125
0.00012627
0.000126871
0.000130214
0.00013857
0.0001552
0.000182184
0.000215121
0.000243767
0.000254896
0.000255453
0.000255998
0.000256745
0.000259368
0.000268918
0.000286639
0.000311373
0.000336334
0.000353667
0.000358191
0.000348668
0.000327012
0.000297821
0.000266399
0.000236966
0.000211892
0.000191926
0.000176779
0.000165686
0.000157764
0.000152206
0.000148348
0.000145691
0.000143866
0.000142612
0.000141749
0.000141152
0.000140738
0.00014045
0.000140251
0.000140112
0.000140013
0.000139942
0.000139893
0.000139857
0.000139832
0.000139815
0.000139804
0.000139805
0.00013985
0.000144315
0.000138549
0.000134055
0.00013089
0.000128961
0.00012805
0.000127846
0.000127984
0.00012812
0.000128001
0.000127459
0.00012641
0.000124882
0.000122941
0.000120695
0.000118286
0.000115865
0.000113627
0.000111638
0.000109882
0.000108342
0.000107007
0.000105849
0.000104931
0.000104405
0.000104541
0.000105895
0.000109597
0.000117951
0.000135263
0.00016737
0.000214174
0.000261082
0.000296312
0.000292093
0.000295741
0.000359913
0.000441554
0.000472419
0.000456032
0.000423472
0.000389664
0.000359384
0.000334654
0.00031391
0.0002944
0.000271469
0.000245528
0.000218731
0.000193591
0.000171894
0.000154365
0.000140902
0.000130955
0.000123813
0.00011881
0.000115354
0.000112996
0.000111399
0.000110322
0.000109595
0.000109103
0.00010877
0.000108543
0.000108388
0.000108282
0.000108209
0.000108159
0.000108125
0.0001081
0.000108083
0.000108072
0.000108064
0.000108063
0.000108082
0.000144115
0.000137844
0.00013243
0.000127888
0.000124175
0.000121193
0.0001188
0.000116823
0.000115087
0.000113458
0.000111836
0.000110157
0.000108408
0.000106593
0.000104769
0.000102985
0.000101295
9.97665e-05
9.8459e-05
9.73673e-05
9.64851e-05
9.5816e-05
9.53679e-05
9.5294e-05
9.57808e-05
9.72201e-05
0.000100478
0.000107415
0.000122023
0.000151758
0.000204434
0.000266993
0.000325702
0.000379202
0.000326946
0.000289297
0.000288478
0.000333346
0.00035767
0.000348587
0.000359286
0.000527511
0.000495443
0.000424128
0.000357569
0.000308177
0.000268466
0.000234232
0.000204027
0.000177856
0.000156132
0.000138943
0.000125906
0.000116358
0.000109559
0.000104828
0.000101589
9.9399e-05
9.79383e-05
9.69702e-05
9.633e-05
9.59071e-05
9.56276e-05
9.54425e-05
9.53196e-05
9.52378e-05
9.51831e-05
9.51465e-05
9.5122e-05
9.51055e-05
9.50942e-05
9.50865e-05
9.50815e-05
9.50788e-05
9.50815e-05
0.000144034
0.00013757
0.000131802
0.000126714
0.00012227
0.000118415
0.000115077
0.000112168
0.000109599
0.000107292
0.000105183
0.000103227
0.0001014
9.9693e-05
9.81086e-05
9.66597e-05
9.53623e-05
9.4238e-05
9.33135e-05
9.25884e-05
9.20671e-05
9.17718e-05
9.17638e-05
9.21891e-05
9.33288e-05
9.57723e-05
0.000100805
0.000111323
0.000133695
0.000179192
0.000252854
0.000314875
0.000411239
0.000360037
0.000333888
0.00015
0.00015
0.00015
0.00015
0.00015
0.000351412
0.000401696
0.000549292
0.000495416
0.000412724
0.000342517
0.000287143
0.000242493
0.000206001
0.000176311
0.000152708
0.000134567
0.00012108
0.000111342
0.000104474
9.97424e-05
9.6528e-05
9.43729e-05
9.29432e-05
9.20022e-05
9.13855e-05
9.09836e-05
9.0723e-05
9.05538e-05
9.04442e-05
9.03731e-05
9.0327e-05
9.02971e-05
9.02776e-05
9.0265e-05
9.02567e-05
9.02512e-05
9.02475e-05
9.02444e-05
9.02383e-05
0.000143996
0.000137451
0.00013154
0.00012623
0.000121482
0.000117257
0.000113508
0.000110186
0.000107241
0.000104625
0.000102297
0.000100221
9.83703e-05
9.6725e-05
9.52724e-05
9.40038e-05
9.2914e-05
9.20036e-05
9.12807e-05
9.07472e-05
9.04153e-05
9.03219e-05
9.05541e-05
9.12962e-05
9.29255e-05
9.62483e-05
0.000103074
0.000117605
0.000149116
0.000212653
0.000302509
0.000372503
0.00033105
0.00015
0.00015
0.00015
0.00015
0.00015
0.00015
0.00015
0.00015
0.000372129
0.000376216
0.000444829
0.000405298
0.000348418
0.000295131
0.00024871
0.000209756
0.000178013
0.000153031
0.000134053
0.000120084
0.000110076
0.000103062
9.82356e-05
9.49621e-05
9.27681e-05
9.13101e-05
9.03531e-05
8.97271e-05
8.93199e-05
8.90557e-05
8.88852e-05
8.87758e-05
8.87057e-05
8.8661e-05
8.86325e-05
8.86144e-05
8.86029e-05
8.85956e-05
8.8591e-05
8.85878e-05
8.85843e-05
8.85741e-05
0.000143978
0.000137395
0.00013142
0.000126012
0.000121133
0.000116745
0.000112815
0.000109307
0.00010619
0.000103431
0.000100999
9.88656e-05
9.70028e-05
9.53865e-05
9.39958e-05
9.28124e-05
9.1822e-05
9.10152e-05
9.03906e-05
8.99511e-05
8.97143e-05
8.97287e-05
9.01031e-05
9.10653e-05
9.30913e-05
9.72178e-05
0.000105826
0.000124556
0.00016582
0.000248275
0.000344085
0.000302884
0.000296284
0.00015
0.00015
0.00015
0.00015
0.00015
0.00015
0.00015
0.00015
0.00015
0.000301659
0.000297262
0.000329759
0.000312062
0.000278829
0.000241723
0.000206752
0.000176553
0.000152197
0.000133488
0.000119643
0.000109691
0.000102694
9.78602e-05
9.45656e-05
9.23458e-05
9.08638e-05
8.98826e-05
8.92374e-05
8.88159e-05
8.85419e-05
8.83647e-05
8.82507e-05
8.81778e-05
8.81313e-05
8.81019e-05
8.80833e-05
8.80717e-05
8.80644e-05
8.80598e-05
8.80566e-05
8.80529e-05
8.80409e-05
0.000143968
0.000137367
0.000131361
0.000125907
0.000120967
0.000116506
0.000112492
0.000108899
0.000105701
0.000102874
0.000100393
9.82304e-05
9.63594e-05
9.47535e-05
9.33878e-05
9.22401e-05
9.12919e-05
9.05297e-05
8.99477e-05
8.95492e-05
8.9356e-05
8.94255e-05
8.98849e-05
9.10015e-05
9.33404e-05
9.81505e-05
0.000108341
0.000130891
0.00018131
0.000282705
0.000388391
0.000325159
0.00015
0.00015
0.00015
0.00015
0.00015
0.00015
0.00015
0.00015
0.00015
0.00015
0.00015
0.000220893
0.000248925
0.000260662
0.000250068
0.000225896
0.000197989
0.000171626
0.000149378
0.000131886
0.000118745
0.000109194
0.000102417
9.76942e-05
9.44492e-05
9.22448e-05
9.07616e-05
8.97717e-05
8.91159e-05
8.86843e-05
8.8402e-05
8.82185e-05
8.80999e-05
8.80237e-05
8.79751e-05
8.79442e-05
8.79248e-05
8.79126e-05
8.79049e-05
8.79001e-05
8.78969e-05
8.7893e-05
8.78803e-05
0.000143963
0.000137353
0.000131332
0.000125858
0.00012089
0.000116395
0.000112345
0.000108714
0.00010548
0.000102623
0.000100118
9.79419e-05
9.6066e-05
9.4463e-05
9.31064e-05
9.19719e-05
9.1039e-05
9.02932e-05
8.97264e-05
8.93422e-05
8.91651e-05
8.92586e-05
8.97628e-05
9.09726e-05
9.3517e-05
9.87956e-05
0.000110091
0.000135325
0.000192324
0.000306307
0.000401212
0.00034786
0.00015
0.00015
0.00015
0.00015
0.00015
0.00015
0.00015
0.00015
0.00015
0.00015
0.00015
0.00017802
0.000194465
0.00021915
0.000223928
0.000210259
0.000188614
0.000166017
0.000146007
0.000129908
0.00011761
0.000108562
0.000102077
9.75184e-05
9.43604e-05
9.21986e-05
9.07334e-05
8.97486e-05
8.90917e-05
8.86566e-05
8.83703e-05
8.81832e-05
8.80617e-05
8.79833e-05
8.7933e-05
8.79011e-05
8.78808e-05
8.78681e-05
8.78602e-05
8.78552e-05
8.78518e-05
8.78479e-05
8.78349e-05
0.000143961
0.000137349
0.000131324
0.000125843
0.000120867
0.000116363
0.000112301
0.000108659
0.000105416
0.000102549
0.000100039
9.78581e-05
9.59809e-05
9.43789e-05
9.30247e-05
9.18937e-05
9.09647e-05
9.02226e-05
8.96584e-05
8.92765e-05
8.91021e-05
8.92009e-05
8.97174e-05
9.09565e-05
9.35697e-05
9.90095e-05
0.00011068
0.000136752
0.000195216
0.000308779
0.000390064
0.000343856
0.00015
0.00015
0.00015
0.00015
0.00015
0.00015
0.00015
0.00015
0.00015
0.00015
0.00015
0.000161995
0.000173763
0.000200788
0.000210889
0.000201705
0.000182951
0.000162243
0.000143604
0.000128415
0.000116699
0.000108021
0.000101768
9.73487e-05
9.4272e-05
9.21554e-05
9.07137e-05
8.97401e-05
8.90876e-05
8.86534e-05
8.83665e-05
8.81782e-05
8.80553e-05
8.79758e-05
8.79247e-05
8.7892e-05
8.78713e-05
8.78582e-05
8.785e-05
8.78448e-05
8.78413e-05
8.78373e-05
8.78242e-05
0.000143963
0.000137353
0.000131332
0.000125858
0.00012089
0.000116395
0.000112345
0.000108713
0.00010548
0.000102623
0.000100119
9.79421e-05
9.60665e-05
9.44639e-05
9.31076e-05
9.19734e-05
9.10406e-05
9.02944e-05
8.97263e-05
8.93404e-05
8.9161e-05
8.92515e-05
8.97513e-05
9.09546e-05
9.34876e-05
9.87424e-05
0.00010998
0.000135066
0.000191703
0.000305269
0.000400268
0.000349409
0.00015
0.00015
0.00015
0.00015
0.00015
0.00015
0.00015
0.00015
0.00015
0.00015
0.00015
0.00017544
0.00019092
0.000214351
0.000218547
0.000205124
0.000184229
0.000162567
0.000143465
0.000128136
0.000116434
0.000107815
0.000101624
9.72564e-05
9.4217e-05
9.21255e-05
9.06998e-05
8.97358e-05
8.90888e-05
8.86575e-05
8.83719e-05
8.8184e-05
8.80612e-05
8.79815e-05
8.793e-05
8.78971e-05
8.78761e-05
8.78628e-05
8.78545e-05
8.78492e-05
8.78456e-05
8.78415e-05
8.78283e-05
0.000143968
0.000137367
0.00013136
0.000125907
0.000120967
0.000116505
0.000112491
0.000108897
0.000105698
0.00010287
0.000100386
9.82212e-05
9.63483e-05
9.4741e-05
9.33745e-05
9.22265e-05
9.12783e-05
9.05157e-05
8.99324e-05
8.95317e-05
8.93351e-05
8.93997e-05
8.98518e-05
9.09569e-05
9.32756e-05
9.8044e-05
0.000108134
0.00013042
0.00018019
0.000280678
0.000386725
0.000328557
0.00015
0.00015
0.00015
0.00015
0.00015
0.00015
0.00015
0.00015
0.00015
0.00015
0.00015
0.000214319
0.000240105
0.000250242
0.000239574
0.000216517
0.000190276
0.000165688
0.000145057
0.000128894
0.000116766
0.00010794
0.000101657
9.72537e-05
9.42066e-05
9.21189e-05
9.07007e-05
8.97443e-05
8.91038e-05
8.86774e-05
8.83954e-05
8.82099e-05
8.80886e-05
8.80098e-05
8.79589e-05
8.79262e-05
8.79054e-05
8.78921e-05
8.78838e-05
8.78785e-05
8.78748e-05
8.78707e-05
8.78575e-05
0.000143978
0.000137395
0.00013142
0.000126012
0.000121133
0.000116744
0.00011281
0.000109298
0.000106175
0.000103407
0.000100966
9.88214e-05
9.69485e-05
9.53239e-05
9.39273e-05
9.27408e-05
9.17497e-05
9.09437e-05
9.03199e-05
8.98806e-05
8.96426e-05
8.96536e-05
9.00211e-05
9.09709e-05
9.29732e-05
9.70504e-05
0.000105541
0.000123964
0.000164468
0.000245746
0.000342042
0.000306698
0.000301364
0.00015
0.00015
0.00015
0.00015
0.00015
0.00015
0.00015
0.00015
0.00015
0.000292012
0.000283282
0.000313566
0.000296076
0.000264449
0.000229647
0.000197146
0.000169275
0.000146934
0.000129848
0.000117231
0.000108156
0.000101755
9.73052e-05
9.42475e-05
9.2166e-05
9.076e-05
8.9817e-05
8.91883e-05
8.87714e-05
8.84965e-05
8.83161e-05
8.81983e-05
8.81217e-05
8.80723e-05
8.80405e-05
8.80202e-05
8.80073e-05
8.79991e-05
8.79939e-05
8.79903e-05
8.79861e-05
8.7973e-05
0.000143996
0.000137451
0.00013154
0.000126229
0.000121481
0.000117251
0.000113494
0.00011016
0.000107195
0.000104553
0.000102194
0.000100085
9.82031e-05
9.65316e-05
9.50601e-05
9.3781e-05
9.26889e-05
9.17823e-05
9.10662e-05
9.05404e-05
9.02153e-05
9.01265e-05
9.03596e-05
9.1096e-05
9.27076e-05
9.59867e-05
0.000102704
0.000116951
0.000147766
0.000210127
0.000299935
0.000373119
0.000336008
0.00015
0.00015
0.00015
0.00015
0.00015
0.00015
0.00015
0.00015
0.00036025
0.000359793
0.000421799
0.000384307
0.00033039
0.000280074
0.00023645
0.000200056
0.000170606
0.000147597
0.000130227
0.000117491
0.000108375
0.000101972
9.75437e-05
9.45165e-05
9.2467e-05
9.10883e-05
9.01714e-05
8.95627e-05
8.91607e-05
8.88958e-05
8.87223e-05
8.86092e-05
8.85358e-05
8.84884e-05
8.84578e-05
8.84382e-05
8.84257e-05
8.84176e-05
8.84125e-05
8.84089e-05
8.84048e-05
8.83918e-05
0.000144034
0.00013757
0.000131802
0.000126713
0.000122266
0.000118401
0.000115043
0.000112101
0.000109482
0.000107109
0.000104923
0.000102888
0.000100985
9.92142e-05
9.75836e-05
9.61086e-05
9.48048e-05
9.36899e-05
9.27843e-05
9.20823e-05
9.15853e-05
9.1313e-05
9.13241e-05
9.17623e-05
9.29038e-05
9.53261e-05
0.000100284
0.000110588
0.000132421
0.000176909
0.000250053
0.000314604
0.000413616
0.000368289
0.00034186
0.00015
0.00015
0.00015
0.00015
0.00015
0.000343344
0.000387938
0.000525004
0.000474783
0.000395327
0.000327815
0.000274513
0.000231695
0.000197014
0.000169122
0.000147203
0.000130517
0.000118193
0.000109321
0.00010306
9.87314e-05
9.57722e-05
9.3771e-05
9.24295e-05
9.15363e-05
9.09434e-05
9.05523e-05
9.02954e-05
9.01268e-05
9.00165e-05
8.99444e-05
8.98974e-05
8.98667e-05
8.98468e-05
8.98339e-05
8.98256e-05
8.98201e-05
8.98163e-05
8.9812e-05
8.97994e-05
0.000144115
0.000137845
0.000132431
0.000127887
0.000124167
0.000121166
0.00011873
0.000116678
0.000114834
0.000113062
0.000111277
0.00010943
0.000107524
0.000105579
0.000103662
0.000101826
0.000100122
9.8611e-05
9.73418e-05
9.62986e-05
9.54695e-05
9.48538e-05
9.44562e-05
9.44272e-05
9.49497e-05
9.6407e-05
9.96442e-05
0.000106466
0.00012074
0.000149801
0.000201961
0.000265743
0.000327573
0.000385713
0.000336857
0.000300101
0.000298588
0.00034199
0.000362019
0.000344889
0.000348086
0.000510832
0.00048156
0.000412532
0.000346513
0.00029704
0.000257292
0.000223574
0.000194497
0.000169849
0.000149747
0.00013404
0.00012222
0.000113595
0.000107453
0.000103165
0.000100215
9.82063e-05
9.68561e-05
9.59538e-05
9.53521e-05
9.49516e-05
9.46851e-05
9.45079e-05
9.43899e-05
9.43114e-05
9.42591e-05
9.42243e-05
9.42012e-05
9.41859e-05
9.41755e-05
9.41686e-05
9.41637e-05
9.4159e-05
9.41473e-05
0.000144315
0.00013855
0.000134057
0.000130893
0.000128955
0.00012801
0.000127725
0.000127718
0.000127642
0.000127252
0.000126405
0.00012505
0.000123244
0.00012108
0.000118677
0.000116184
0.000113743
0.000111536
0.000109612
0.000107939
0.000106488
0.000105245
0.000104177
0.000103343
0.000102893
0.000103093
0.000104486
0.00010817
0.000116382
0.000133357
0.000165156
0.00021264
0.000262173
0.000301545
0.000300907
0.000306678
0.000372539
0.000453725
0.000482411
0.000464218
0.000428093
0.000388867
0.000355409
0.000327288
0.000303228
0.000281285
0.000257297
0.000231739
0.000206404
0.000183268
0.000163639
0.000147935
0.000135927
0.000127057
0.000120672
0.000116179
0.000113058
0.000110914
0.000109454
0.000108462
0.000107789
0.000107333
0.000107022
0.000106811
0.000106667
0.000106569
0.000106502
0.000106457
0.000106425
0.000106404
0.000106389
0.000106379
0.000106371
0.000106366
0.000106357
0.000144857
0.000140485
0.000138419
0.00013872
0.000141163
0.000145168
0.00014991
0.000154535
0.000158328
0.000160831
0.000161817
0.000161363
0.000159703
0.000157127
0.000153901
0.000150342
0.000146748
0.000143476
0.00014047
0.000137702
0.000135135
0.000132727
0.000130438
0.000128255
0.000126326
0.000124793
0.000124011
0.000124651
0.00012797
0.000136207
0.000152725
0.000180119
0.000214815
0.000246662
0.000261163
0.000264112
0.00026579
0.000267122
0.00026865
0.000275533
0.000288983
0.000308004
0.00032669
0.000338196
0.00033849
0.000326989
0.000305668
0.000278569
0.000250174
0.000223937
0.000201722
0.000184048
0.000170606
0.00016071
0.000153597
0.00014857
0.000145054
0.000142616
0.000140932
0.000139769
0.000138965
0.000138408
0.000138022
0.000137753
0.000137568
0.000137439
0.000137348
0.000137284
0.000137239
0.000137207
0.000137184
0.000137169
0.000137158
0.000137152
0.000137151
0.000146459
0.000145931
0.000150135
0.00015931
0.000172806
0.000188607
0.000204457
0.000218417
0.000229395
0.000236861
0.000240558
0.000240979
0.000238825
0.000234874
0.000229852
0.000224396
0.000219104
0.000214179
0.00020953
0.000205168
0.000201043
0.000197078
0.000193189
0.000189344
0.000185585
0.000182057
0.000179032
0.000176988
0.000176708
0.000179427
0.000186884
0.000200806
0.000221064
0.000244107
0.000263664
0.000277212
0.000287089
0.000293501
0.000315812
0.000354991
0.000403829
0.000450569
0.000484811
0.000499225
0.0004918
0.000465842
0.000427892
0.000385503
0.000344898
0.000309828
0.000281655
0.000260138
0.000244266
0.000232835
0.000224731
0.000219036
0.000215054
0.000212277
0.000210338
0.000208981
0.000208029
0.000207358
0.000206889
0.000206558
0.000206319
0.000206149
0.000206026
0.000205938
0.000205875
0.00020583
0.000205798
0.000205775
0.000205762
0.000205758
0.000205778
0.000151284
0.000160677
0.000182107
0.000215071
0.000255635
0.000297296
0.000335084
0.000364645
0.000384652
0.000395441
0.00039843
0.000395651
0.000389183
0.000380817
0.000371903
0.000363364
0.000355804
0.000348868
0.000342659
0.000337156
0.00033224
0.000327769
0.00032362
0.000319756
0.000316227
0.00031322
0.000311083
0.000310358
0.000311826
0.000316544
0.000325852
0.000341222
0.000363767
0.000393603
0.000429902
0.000472517
0.000523085
0.000590571
0.00067439
0.000762957
0.000839371
0.000886545
0.000895246
0.00086542
0.000805061
0.000727495
0.000646365
0.000571904
0.000509625
0.000460922
0.00042459
0.000398326
0.000379708
0.000366655
0.000357547
0.00035119
0.000346744
0.000343623
0.00034142
0.000339857
0.00033875
0.000337961
0.000337388
0.000336969
0.000336665
0.000336446
0.000336286
0.00033617
0.000336086
0.000336025
0.000335983
0.000335955
0.000335942
0.000335953
0.000336018
0.00016495
0.000201939
0.000274151
0.000370196
0.000472799
0.000559026
0.000621128
0.000656937
0.000669574
0.000665304
0.000650868
0.000631883
0.000612274
0.000594388
0.000579364
0.000567549
0.000558309
0.000551419
0.00054676
0.000544124
0.000543328
0.000544286
0.000547052
0.000551871
0.000559207
0.000569786
0.000584649
0.00060521
0.000633317
0.000671314
0.000722074
0.000788971
0.000875718
0.000985823
0.00112179
0.00128353
0.00146473
0.00165802
0.00181656
0.00191019
0.00191811
0.00183795
0.0016872
0.00149541
0.00129392
0.00110895
0.000954092
0.000833022
0.000742991
0.000678289
0.000632761
0.000601076
0.000579117
0.000563891
0.000553297
0.000545886
0.000540677
0.000537008
0.000534404
0.000532539
0.000531194
0.000530227
0.000529532
0.000529033
0.000528678
0.000528424
0.000528242
0.000528115
0.000528025
0.000527963
0.000527922
0.000527902
0.000527907
0.000527959
0.000528112
0.000202858
0.000332643
0.000560026
0.000784782
0.000943684
0.00102986
0.00105252
0.00103111
0.000986529
0.000934594
0.000884859
0.000842043
0.000807792
0.000782058
0.000763959
0.000752357
0.000746127
0.000744671
0.000747621
0.000754877
0.000766647
0.000783499
0.000806456
0.000837109
0.000877757
0.000931592
0.00100295
0.00109759
0.00122309
0.00138901
0.00160695
0.00188979
0.00224937
0.00269164
0.00320847
0.00376771
0.00427889
0.00458724
0.00462908
0.00438868
0.00392358
0.00333735
0.00274012
0.00221019
0.00178445
0.00146349
0.00123176
0.0010684
0.000954854
0.000876474
0.000822467
0.000785217
0.000759467
0.00074163
0.000729249
0.000720646
0.000714669
0.000710524
0.000707646
0.000705667
0.000704312
0.00070339
0.000702769
0.000702358
0.00070209
0.00070192
0.000701816
0.000701755
0.000701723
0.00070171
0.000701712
0.000701733
0.000701788
0.000701916
0.000702177
)
;

boundaryField
{
    ibCylinder
    {
        type            immersedBoundaryKqRWallFunction;
        patchType       immersedBoundary;
        setDeadValue    true;
        deadValue       0.00015;
        value           nonuniform List<scalar> 0();
    }
    in
    {
        type            fixedValue;
        value           uniform 0.00015;
    }
    out
    {
        type            inletOutlet;
        inletValue      uniform 0.00015;
        value           nonuniform List<scalar> 
25
(
0.000705185
0.000531276
0.000339609
0.000209254
0.00013985
0.000108082
9.50815e-05
9.02383e-05
8.85741e-05
8.80409e-05
8.78803e-05
8.78349e-05
8.78242e-05
8.78283e-05
8.78575e-05
8.7973e-05
8.83918e-05
8.97994e-05
9.41473e-05
0.000106357
0.000137151
0.000205778
0.000336018
0.000528112
0.000702177
)
;
    }
    top
    {
        type            zeroGradient;
    }
    bottom
    {
        type            zeroGradient;
    }
    frontAndBack
    {
        type            empty;
    }
}


// ************************************************************************* //
