/*--------------------------------*- C++ -*----------------------------------*\
| =========                 |                                                 |
| \\      /  F ield         | OpenFOAM: The Open Source CFD Toolbox           |
|  \\    /   O peration     | Version:  2206                                  |
|   \\  /    A nd           | Website:  www.openfoam.com                      |
|    \\/     M anipulation  |                                                 |
\*---------------------------------------------------------------------------*/
FoamFile
{
    version     2.0;
    format      ascii;
    arch        "LSB;label=32;scalar=64";
    class       volScalarField;
    location    "0.6";
    object      nut;
}
// * * * * * * * * * * * * * * * * * * * * * * * * * * * * * * * * * * * * * //

dimensions      [0 2 -1 0 0 0 0];

internalField   nonuniform List<scalar> 
1875
(
1.1074e-05
1.33037e-05
1.78615e-05
2.3198e-05
2.79513e-05
3.16075e-05
3.39721e-05
3.51738e-05
3.55284e-05
3.53669e-05
3.49475e-05
3.44418e-05
3.3952e-05
3.35315e-05
3.32016e-05
3.29642e-05
3.2813e-05
3.27485e-05
3.27705e-05
3.28796e-05
3.30793e-05
3.3378e-05
3.37913e-05
3.43435e-05
3.5069e-05
3.60141e-05
3.72381e-05
3.88156e-05
4.08388e-05
4.34193e-05
4.66861e-05
5.07776e-05
5.58144e-05
6.18467e-05
6.87636e-05
7.61806e-05
8.29982e-05
8.71944e-05
8.80592e-05
8.53896e-05
7.97626e-05
7.23136e-05
6.4368e-05
5.69824e-05
5.07625e-05
4.58336e-05
4.20763e-05
3.92639e-05
3.71823e-05
3.56551e-05
3.45442e-05
3.3743e-05
3.31696e-05
3.2762e-05
3.24736e-05
3.22704e-05
3.21279e-05
3.20282e-05
3.19585e-05
3.19104e-05
3.18772e-05
3.18546e-05
3.18393e-05
3.18291e-05
3.18224e-05
3.18182e-05
3.18155e-05
3.1814e-05
3.18132e-05
3.18129e-05
3.18129e-05
3.18133e-05
3.18144e-05
3.18168e-05
3.18204e-05
1.03534e-05
1.05064e-05
1.15581e-05
1.38027e-05
1.67616e-05
1.97373e-05
2.23653e-05
2.44219e-05
2.58427e-05
2.66914e-05
2.70956e-05
2.71942e-05
2.71071e-05
2.69245e-05
2.67077e-05
2.64938e-05
2.6283e-05
2.60872e-05
2.5917e-05
2.57746e-05
2.56576e-05
2.55625e-05
2.54862e-05
2.54283e-05
2.53913e-05
2.5382e-05
2.54125e-05
2.55014e-05
2.56765e-05
2.59769e-05
2.64557e-05
2.71795e-05
2.8225e-05
2.9672e-05
3.15985e-05
3.40637e-05
3.70554e-05
4.04517e-05
4.35051e-05
4.57561e-05
4.68008e-05
4.64515e-05
4.48257e-05
4.22928e-05
3.93397e-05
3.6445e-05
3.38993e-05
3.18202e-05
3.02e-05
2.89711e-05
2.80541e-05
2.73783e-05
2.68859e-05
2.65304e-05
2.62754e-05
2.60931e-05
2.59631e-05
2.58705e-05
2.58045e-05
2.57569e-05
2.57224e-05
2.56975e-05
2.56796e-05
2.56667e-05
2.56575e-05
2.56509e-05
2.56462e-05
2.56429e-05
2.56406e-05
2.5639e-05
2.5638e-05
2.56375e-05
2.56379e-05
2.56402e-05
2.56491e-05
1.0195e-05
1.01151e-05
1.00797e-05
1.05184e-05
1.15076e-05
1.28505e-05
1.43198e-05
1.5705e-05
1.68852e-05
1.78006e-05
1.84399e-05
1.88302e-05
1.9019e-05
1.90589e-05
1.89991e-05
1.88804e-05
1.87346e-05
1.85587e-05
1.83669e-05
1.81673e-05
1.79616e-05
1.77479e-05
1.75225e-05
1.72828e-05
1.7028e-05
1.67612e-05
1.64908e-05
1.62325e-05
1.60127e-05
1.58703e-05
1.58558e-05
1.60151e-05
1.63551e-05
1.68221e-05
1.73377e-05
1.79068e-05
1.86484e-05
1.98016e-05
2.14204e-05
2.3395e-05
2.54092e-05
2.70566e-05
2.80292e-05
2.81903e-05
2.75942e-05
2.64599e-05
2.50728e-05
2.36824e-05
2.24473e-05
2.14317e-05
2.06349e-05
2.00274e-05
1.95731e-05
1.92388e-05
1.8996e-05
1.88214e-05
1.86967e-05
1.86081e-05
1.85452e-05
1.85005e-05
1.8469e-05
1.84467e-05
1.84304e-05
1.84186e-05
1.84101e-05
1.8404e-05
1.83996e-05
1.83964e-05
1.83941e-05
1.83925e-05
1.83914e-05
1.83907e-05
1.83907e-05
1.83922e-05
1.83999e-05
1.01295e-05
1.00994e-05
9.98358e-06
9.89535e-06
9.99672e-06
1.03312e-05
1.08371e-05
1.1421e-05
1.20039e-05
1.25257e-05
1.29415e-05
1.3239e-05
1.34227e-05
1.35081e-05
1.3516e-05
1.34693e-05
1.33924e-05
1.32951e-05
1.3179e-05
1.30494e-05
1.2909e-05
1.27584e-05
1.25971e-05
1.24264e-05
1.22508e-05
1.20799e-05
1.19311e-05
1.1836e-05
1.18502e-05
1.2066e-05
1.26138e-05
1.36035e-05
1.49566e-05
1.63022e-05
1.70939e-05
1.71132e-05
1.6601e-05
1.57366e-05
1.51665e-05
1.53146e-05
1.61424e-05
1.73188e-05
1.84731e-05
1.9295e-05
1.96093e-05
1.93983e-05
1.87694e-05
1.79035e-05
1.69814e-05
1.61319e-05
1.54177e-05
1.48512e-05
1.44178e-05
1.40945e-05
1.38578e-05
1.3687e-05
1.35654e-05
1.34798e-05
1.34199e-05
1.33782e-05
1.33492e-05
1.33291e-05
1.33153e-05
1.33058e-05
1.32991e-05
1.32943e-05
1.3291e-05
1.32887e-05
1.3287e-05
1.32859e-05
1.32851e-05
1.32846e-05
1.32845e-05
1.32854e-05
1.32908e-05
1.00986e-05
1.00729e-05
1.00246e-05
9.93858e-06
9.85016e-06
9.81357e-06
9.85565e-06
9.96909e-06
1.01258e-05
1.0294e-05
1.04462e-05
1.05679e-05
1.06533e-05
1.07027e-05
1.07188e-05
1.07096e-05
1.06839e-05
1.0653e-05
1.06156e-05
1.05724e-05
1.05239e-05
1.04715e-05
1.04172e-05
1.03653e-05
1.03299e-05
1.03288e-05
1.03979e-05
1.0606e-05
1.10853e-05
1.20807e-05
1.39687e-05
1.70667e-05
2.10491e-05
2.48693e-05
2.71162e-05
2.70581e-05
2.56879e-05
2.35825e-05
2.10698e-05
1.87057e-05
1.70456e-05
1.6272e-05
1.61141e-05
1.61949e-05
1.62196e-05
1.60244e-05
1.55571e-05
1.48772e-05
1.41025e-05
1.33486e-05
1.26915e-05
1.21616e-05
1.17566e-05
1.1458e-05
1.12431e-05
1.10911e-05
1.09852e-05
1.09124e-05
1.0863e-05
1.08298e-05
1.08077e-05
1.07932e-05
1.07836e-05
1.07774e-05
1.07734e-05
1.07709e-05
1.07693e-05
1.07683e-05
1.07676e-05
1.07672e-05
1.0767e-05
1.07669e-05
1.07669e-05
1.07674e-05
1.07702e-05
1.00842e-05
1.0045e-05
1.00119e-05
9.97097e-06
9.9146e-06
9.84945e-06
9.78969e-06
9.74691e-06
9.72486e-06
9.72033e-06
9.7271e-06
9.73861e-06
9.75096e-06
9.76124e-06
9.76873e-06
9.77483e-06
9.78135e-06
9.79042e-06
9.80151e-06
9.81324e-06
9.82546e-06
9.83988e-06
9.85907e-06
9.89346e-06
9.96224e-06
1.00993e-05
1.03707e-05
1.09106e-05
1.19964e-05
1.41665e-05
1.82507e-05
2.476e-05
3.24777e-05
3.96938e-05
4.57321e-05
4.33665e-05
4.10315e-05
4.05772e-05
3.97535e-05
3.68164e-05
3.27045e-05
2.8061e-05
2.37448e-05
2.052e-05
1.83277e-05
1.68348e-05
1.5634e-05
1.45587e-05
1.35689e-05
1.269e-05
1.19561e-05
1.13795e-05
1.09488e-05
1.06387e-05
1.04204e-05
1.027e-05
1.01674e-05
1.00984e-05
1.00529e-05
1.00233e-05
1.00047e-05
9.99311e-06
9.98621e-06
9.98226e-06
9.98014e-06
9.97912e-06
9.97874e-06
9.97871e-06
9.97883e-06
9.97903e-06
9.97925e-06
9.97945e-06
9.97966e-06
9.97996e-06
9.98091e-06
1.00774e-05
1.00273e-05
9.98737e-06
9.9539e-06
9.921e-06
9.88462e-06
9.84425e-06
9.80228e-06
9.76227e-06
9.72739e-06
9.69978e-06
9.68024e-06
9.66906e-06
9.6654e-06
9.67e-06
9.68214e-06
9.70067e-06
9.72374e-06
9.7498e-06
9.77793e-06
9.80851e-06
9.84423e-06
9.89067e-06
9.96601e-06
1.00972e-05
1.03371e-05
1.07955e-05
1.17068e-05
1.35767e-05
1.73987e-05
2.45669e-05
3.52064e-05
4.69809e-05
5.79388e-05
9.26267e-05
5.24283e-05
3.26262e-05
2.89153e-05
3.98628e-05
6.39714e-05
0.000101772
5.59155e-05
4.34496e-05
3.37908e-05
2.67937e-05
2.21876e-05
1.90591e-05
1.68016e-05
1.50794e-05
1.37295e-05
1.26785e-05
1.1881e-05
1.1292e-05
1.08661e-05
1.05622e-05
1.03475e-05
1.01973e-05
1.00933e-05
1.00227e-05
9.97557e-06
9.94474e-06
9.925e-06
9.9127e-06
9.90527e-06
9.90096e-06
9.89859e-06
9.8974e-06
9.8969e-06
9.89677e-06
9.89684e-06
9.89699e-06
9.89717e-06
9.89734e-06
9.8975e-06
9.89766e-06
1.00742e-05
1.00178e-05
9.97026e-06
9.93149e-06
9.8998e-06
9.87296e-06
9.84901e-06
9.82681e-06
9.80629e-06
9.78827e-06
9.774e-06
9.76464e-06
9.76101e-06
9.76345e-06
9.77185e-06
9.78577e-06
9.80434e-06
9.82624e-06
9.8502e-06
9.87644e-06
9.90679e-06
9.94607e-06
1.00047e-05
1.01037e-05
1.02825e-05
1.062e-05
1.12834e-05
1.26442e-05
1.55243e-05
2.14919e-05
3.22551e-05
4.68695e-05
6.34783e-05
6.29309e-05
1.94569e-05
1e-06
1e-06
1e-06
1e-06
1e-06
2.2268e-05
7.51901e-05
6.18682e-05
4.87198e-05
3.77395e-05
2.98913e-05
2.44838e-05
2.06628e-05
1.78732e-05
1.5785e-05
1.42089e-05
1.30277e-05
1.21522e-05
1.15096e-05
1.10414e-05
1.07042e-05
1.04633e-05
1.02935e-05
1.01756e-05
1.00948e-05
1.00403e-05
1.00042e-05
9.98069e-06
9.96564e-06
9.95619e-06
9.95038e-06
9.9469e-06
9.94487e-06
9.94374e-06
9.94314e-06
9.94285e-06
9.94273e-06
9.94271e-06
9.94271e-06
9.94264e-06
1.00725e-05
1.00129e-05
9.96072e-06
9.91657e-06
9.88053e-06
9.8522e-06
9.8309e-06
9.81582e-06
9.80621e-06
9.80156e-06
9.8015e-06
9.80571e-06
9.81381e-06
9.8254e-06
9.8399e-06
9.85668e-06
9.8751e-06
9.8947e-06
9.91536e-06
9.93841e-06
9.96711e-06
1.00084e-05
1.00764e-05
1.0198e-05
1.04262e-05
1.08689e-05
1.17628e-05
1.36491e-05
1.77327e-05
2.61686e-05
4.02972e-05
6.22039e-05
5.91908e-05
1e-06
1e-06
1e-06
1e-06
1e-06
1e-06
1e-06
1e-06
1.09088e-05
7.48206e-05
5.73132e-05
4.48988e-05
3.57838e-05
2.91992e-05
2.43351e-05
2.06812e-05
1.79056e-05
1.57981e-05
1.42103e-05
1.30255e-05
1.21497e-05
1.15084e-05
1.10436e-05
1.07106e-05
1.04749e-05
1.031e-05
1.01965e-05
1.01192e-05
1.00672e-05
1.00327e-05
1.00101e-05
9.99552e-06
9.98624e-06
9.98042e-06
9.97683e-06
9.97466e-06
9.97336e-06
9.97261e-06
9.97218e-06
9.97195e-06
9.97181e-06
9.97167e-06
1.00717e-05
1.00104e-05
9.95568e-06
9.90819e-06
9.86848e-06
9.83694e-06
9.81375e-06
9.79882e-06
9.79173e-06
9.79179e-06
9.79805e-06
9.80931e-06
9.82432e-06
9.84181e-06
9.86067e-06
9.87998e-06
9.89917e-06
9.91819e-06
9.93769e-06
9.95975e-06
9.98878e-06
1.00336e-05
1.01116e-05
1.02561e-05
1.05335e-05
1.10827e-05
1.22148e-05
1.46558e-05
2.00133e-05
3.09219e-05
4.67675e-05
8.68458e-05
1.6827e-05
1e-06
1e-06
1e-06
1e-06
1e-06
1e-06
1e-06
1e-06
1e-06
2.21874e-05
9.55616e-05
4.68507e-05
3.7373e-05
3.11929e-05
2.63203e-05
2.24092e-05
1.92981e-05
1.68739e-05
1.50194e-05
1.36231e-05
1.25859e-05
1.18246e-05
1.12721e-05
1.08756e-05
1.05944e-05
1.03972e-05
1.02604e-05
1.01667e-05
1.01033e-05
1.00608e-05
1.00326e-05
1.00143e-05
1.00024e-05
9.99479e-06
9.99001e-06
9.98704e-06
9.98522e-06
9.98412e-06
9.98346e-06
9.98308e-06
9.98285e-06
9.98266e-06
1.00712e-05
1.00091e-05
9.95306e-06
9.90375e-06
9.86185e-06
9.82801e-06
9.80278e-06
9.78649e-06
9.77906e-06
9.77991e-06
9.78799e-06
9.80182e-06
9.81968e-06
9.83986e-06
9.86088e-06
9.88161e-06
9.90148e-06
9.92056e-06
9.93986e-06
9.96193e-06
9.99202e-06
1.00405e-05
1.01273e-05
1.02915e-05
1.06117e-05
1.12546e-05
1.25997e-05
1.55425e-05
2.20618e-05
3.51285e-05
5.02308e-05
5.33016e-05
1e-06
1e-06
1e-06
1e-06
1e-06
1e-06
1e-06
1e-06
1e-06
1e-06
1e-06
4.77885e-05
4.03596e-05
3.51614e-05
3.06864e-05
2.65176e-05
2.28461e-05
1.97641e-05
1.72854e-05
1.53559e-05
1.38871e-05
1.27885e-05
1.19781e-05
1.13875e-05
1.09619e-05
1.06586e-05
1.04448e-05
1.02956e-05
1.01928e-05
1.01226e-05
1.00752e-05
1.00436e-05
1.00228e-05
1.00093e-05
1.00005e-05
9.99498e-06
9.99148e-06
9.98931e-06
9.98798e-06
9.98717e-06
9.98668e-06
9.98639e-06
9.98617e-06
1.0071e-05
1.00085e-05
9.95178e-06
9.90159e-06
9.85858e-06
9.82351e-06
9.79708e-06
9.77977e-06
9.77167e-06
9.77235e-06
9.78073e-06
9.79526e-06
9.81406e-06
9.83523e-06
9.85707e-06
9.87838e-06
9.89851e-06
9.91764e-06
9.93689e-06
9.95906e-06
9.98992e-06
1.00407e-05
1.01335e-05
1.0311e-05
1.06603e-05
1.13682e-05
1.28614e-05
1.61526e-05
2.34752e-05
3.77513e-05
4.80649e-05
3.25198e-05
1e-06
1e-06
1e-06
1e-06
1e-06
1e-06
1e-06
1e-06
1e-06
1e-06
1e-06
2.59261e-05
3.14098e-05
3.12612e-05
2.87968e-05
2.56084e-05
2.24217e-05
1.95844e-05
1.72252e-05
1.53554e-05
1.39138e-05
1.28253e-05
1.20165e-05
1.1423e-05
1.09927e-05
1.06842e-05
1.04653e-05
1.03117e-05
1.0205e-05
1.01319e-05
1.00822e-05
1.00489e-05
1.00267e-05
1.00123e-05
1.00029e-05
9.99687e-06
9.99307e-06
9.99069e-06
9.98922e-06
9.98832e-06
9.98778e-06
9.98744e-06
9.9872e-06
1.0071e-05
1.00083e-05
9.9514e-06
9.90094e-06
9.8576e-06
9.82215e-06
9.79533e-06
9.77768e-06
9.76933e-06
9.76989e-06
9.77829e-06
9.79297e-06
9.812e-06
9.83341e-06
9.85547e-06
9.87691e-06
9.89709e-06
9.91619e-06
9.93538e-06
9.95754e-06
9.98861e-06
1.00402e-05
1.01349e-05
1.03169e-05
1.06762e-05
1.14061e-05
1.29482e-05
1.63443e-05
2.38457e-05
3.80492e-05
4.50791e-05
2.51632e-05
1e-06
1e-06
1e-06
1e-06
1e-06
1e-06
1e-06
1e-06
1e-06
1e-06
1e-06
1.93646e-05
2.67607e-05
2.87849e-05
2.7351e-05
2.47446e-05
2.18882e-05
1.92484e-05
1.70197e-05
1.52326e-05
1.38427e-05
1.27866e-05
1.19975e-05
1.14157e-05
1.09919e-05
1.06865e-05
1.04689e-05
1.03155e-05
1.02085e-05
1.01348e-05
1.00846e-05
1.00507e-05
1.00282e-05
1.00134e-05
1.00037e-05
9.99752e-06
9.99358e-06
9.99111e-06
9.98957e-06
9.98863e-06
9.98806e-06
9.9877e-06
9.98745e-06
1.0071e-05
1.00085e-05
9.95178e-06
9.90159e-06
9.85858e-06
9.82352e-06
9.7971e-06
9.77981e-06
9.77176e-06
9.77249e-06
9.78094e-06
9.79555e-06
9.81444e-06
9.83567e-06
9.85757e-06
9.87889e-06
9.89901e-06
9.91809e-06
9.93726e-06
9.95935e-06
9.9901e-06
1.00408e-05
1.01332e-05
1.031e-05
1.06577e-05
1.13617e-05
1.28451e-05
1.61122e-05
2.33789e-05
3.7571e-05
4.76193e-05
3.24709e-05
1e-06
1e-06
1e-06
1e-06
1e-06
1e-06
1e-06
1e-06
1e-06
1e-06
1e-06
2.56502e-05
3.0736e-05
3.05375e-05
2.81464e-05
2.50559e-05
2.19744e-05
1.92384e-05
1.6969e-05
1.51735e-05
1.37898e-05
1.27443e-05
1.19659e-05
1.13932e-05
1.09764e-05
1.06762e-05
1.04622e-05
1.03112e-05
1.02059e-05
1.01332e-05
1.00836e-05
1.00501e-05
1.00278e-05
1.00131e-05
1.00035e-05
9.99738e-06
9.99346e-06
9.99099e-06
9.98945e-06
9.98851e-06
9.98793e-06
9.98758e-06
9.98733e-06
1.00712e-05
1.00091e-05
9.95305e-06
9.90375e-06
9.86185e-06
9.82802e-06
9.80282e-06
9.78659e-06
9.77925e-06
9.78025e-06
9.78853e-06
9.8026e-06
9.82072e-06
9.84116e-06
9.86238e-06
9.88324e-06
9.90313e-06
9.92214e-06
9.9413e-06
9.96317e-06
9.99301e-06
1.00411e-05
1.01273e-05
1.02902e-05
1.06073e-05
1.12434e-05
1.25718e-05
1.54732e-05
2.18952e-05
3.47912e-05
4.95065e-05
5.33435e-05
1e-06
1e-06
1e-06
1e-06
1e-06
1e-06
1e-06
1e-06
1e-06
1e-06
1e-06
4.68288e-05
3.89101e-05
3.39701e-05
2.97465e-05
2.57793e-05
2.22751e-05
1.93337e-05
1.69715e-05
1.51351e-05
1.37384e-05
1.26933e-05
1.1921e-05
1.13562e-05
1.09472e-05
1.06539e-05
1.04456e-05
1.02991e-05
1.01971e-05
1.01269e-05
1.00791e-05
1.00469e-05
1.00254e-05
1.00113e-05
1.00021e-05
9.99617e-06
9.9924e-06
9.99004e-06
9.98857e-06
9.98766e-06
9.98711e-06
9.98677e-06
9.98653e-06
1.00717e-05
1.00104e-05
9.95568e-06
9.90819e-06
9.86849e-06
9.83698e-06
9.81387e-06
9.79908e-06
9.79225e-06
9.79271e-06
9.7995e-06
9.81143e-06
9.82715e-06
9.84535e-06
9.8648e-06
9.8845e-06
9.90386e-06
9.9228e-06
9.94202e-06
9.96366e-06
9.99215e-06
1.00363e-05
1.01132e-05
1.02557e-05
1.0529e-05
1.10693e-05
1.21809e-05
1.45714e-05
1.98065e-05
3.04706e-05
4.58892e-05
8.70545e-05
1.69217e-05
1e-06
1e-06
1e-06
1e-06
1e-06
1e-06
1e-06
1e-06
1e-06
2.18494e-05
9.25783e-05
4.48925e-05
3.62876e-05
3.04793e-05
2.5835e-05
2.20768e-05
1.90714e-05
1.67224e-05
1.49223e-05
1.35655e-05
1.25566e-05
1.18148e-05
1.12749e-05
1.08857e-05
1.06078e-05
1.04113e-05
1.02737e-05
1.01784e-05
1.0113e-05
1.00686e-05
1.00388e-05
1.0019e-05
1.00061e-05
9.99764e-06
9.99225e-06
9.98883e-06
9.98669e-06
9.98537e-06
9.98456e-06
9.98407e-06
9.98377e-06
9.98355e-06
1.00725e-05
1.00129e-05
9.96072e-06
9.91659e-06
9.88059e-06
9.85239e-06
9.83136e-06
9.81677e-06
9.80791e-06
9.8043e-06
9.80557e-06
9.81131e-06
9.82102e-06
9.83411e-06
9.84987e-06
9.8675e-06
9.88627e-06
9.90571e-06
9.92578e-06
9.94793e-06
9.9755e-06
1.00155e-05
1.00817e-05
1.02007e-05
1.04241e-05
1.08573e-05
1.173e-05
1.35657e-05
1.75264e-05
2.56943e-05
3.93193e-05
6.07707e-05
5.94667e-05
1e-06
1e-06
1e-06
1e-06
1e-06
1e-06
1e-06
1e-06
1.06617e-05
7.29602e-05
5.43847e-05
4.37756e-05
3.53679e-05
2.91089e-05
2.44033e-05
2.08176e-05
1.80613e-05
1.5948e-05
1.43434e-05
1.31385e-05
1.22437e-05
1.15859e-05
1.11074e-05
1.07629e-05
1.05175e-05
1.03444e-05
1.02239e-05
1.01407e-05
1.00839e-05
1.00455e-05
1.00199e-05
1.00031e-05
9.99206e-06
9.98498e-06
9.98049e-06
9.97768e-06
9.97594e-06
9.97488e-06
9.97425e-06
9.97388e-06
9.97365e-06
9.97346e-06
1.00742e-05
1.00178e-05
9.97028e-06
9.93158e-06
9.90012e-06
9.87379e-06
9.85075e-06
9.82994e-06
9.81126e-06
9.79541e-06
9.78354e-06
9.77662e-06
9.77533e-06
9.77986e-06
9.78995e-06
9.80499e-06
9.82399e-06
9.84556e-06
9.86849e-06
9.89317e-06
9.92159e-06
9.95872e-06
1.00149e-05
1.01107e-05
1.02847e-05
1.06132e-05
1.12578e-05
1.25755e-05
1.5353e-05
2.10941e-05
3.14642e-05
4.56035e-05
6.18873e-05
6.33225e-05
1.96288e-05
1e-06
1e-06
1e-06
1e-06
1e-06
2.19493e-05
7.35314e-05
5.90804e-05
4.79533e-05
3.7763e-05
3.02862e-05
2.50213e-05
2.12235e-05
1.83995e-05
1.62514e-05
1.46065e-05
1.33558e-05
1.24153e-05
1.17155e-05
1.11998e-05
1.08248e-05
1.05547e-05
1.03625e-05
1.02275e-05
1.01337e-05
1.00693e-05
1.00257e-05
9.99654e-06
9.97733e-06
9.96483e-06
9.95682e-06
9.95178e-06
9.94865e-06
9.94675e-06
9.94563e-06
9.94498e-06
9.94462e-06
9.94443e-06
9.94432e-06
9.94415e-06
1.00774e-05
1.00272e-05
9.98744e-06
9.95429e-06
9.92223e-06
9.88744e-06
9.84942e-06
9.81026e-06
9.77303e-06
9.74043e-06
9.71437e-06
9.6957e-06
9.68492e-06
9.68146e-06
9.68624e-06
9.69853e-06
9.71705e-06
9.73966e-06
9.76462e-06
9.79111e-06
9.81969e-06
9.85327e-06
9.89748e-06
9.97032e-06
1.0098e-05
1.03315e-05
1.07767e-05
1.16579e-05
1.34573e-05
1.71255e-05
2.40335e-05
3.43845e-05
4.58184e-05
5.68704e-05
9.38046e-05
5.34988e-05
3.33516e-05
2.94937e-05
4.05211e-05
6.40166e-05
0.000100254
5.42397e-05
4.34363e-05
3.43855e-05
2.76006e-05
2.30227e-05
1.98331e-05
1.74847e-05
1.56697e-05
1.42336e-05
1.31036e-05
1.22324e-05
1.15748e-05
1.1087e-05
1.073e-05
1.04721e-05
1.02878e-05
1.01577e-05
1.00673e-05
1.00055e-05
9.96379e-06
9.93604e-06
9.91789e-06
9.90623e-06
9.8989e-06
9.8944e-06
9.89172e-06
9.89018e-06
9.88934e-06
9.88892e-06
9.88875e-06
9.88871e-06
9.88873e-06
9.88874e-06
9.88856e-06
1.00842e-05
1.0045e-05
1.00122e-05
9.9723e-06
9.91825e-06
9.85664e-06
9.80077e-06
9.7608e-06
9.73916e-06
9.73209e-06
9.73364e-06
9.73823e-06
9.74319e-06
9.74676e-06
9.74895e-06
9.75145e-06
9.75589e-06
9.76376e-06
9.77402e-06
9.78509e-06
9.79688e-06
9.81118e-06
9.83061e-06
9.86553e-06
9.93466e-06
1.00708e-05
1.03377e-05
1.08639e-05
1.1914e-05
1.4005e-05
1.79569e-05
2.43409e-05
3.20244e-05
3.93374e-05
4.58958e-05
4.46129e-05
4.25145e-05
4.18424e-05
4.08362e-05
3.79652e-05
3.38142e-05
2.90494e-05
2.47702e-05
2.149e-05
1.91698e-05
1.75309e-05
1.61941e-05
1.50088e-05
1.39357e-05
1.29934e-05
1.22068e-05
1.15818e-05
1.1105e-05
1.07521e-05
1.04962e-05
1.03145e-05
1.01872e-05
1.00992e-05
1.00393e-05
9.99925e-06
9.9728e-06
9.95564e-06
9.94471e-06
9.93791e-06
9.93379e-06
9.93139e-06
9.93007e-06
9.92939e-06
9.9291e-06
9.92901e-06
9.92904e-06
9.92912e-06
9.92922e-06
9.92927e-06
9.92906e-06
1.00986e-05
1.00728e-05
1.00255e-05
9.94216e-06
9.85851e-06
9.82731e-06
9.87269e-06
9.98474e-06
1.0134e-05
1.02889e-05
1.04236e-05
1.0526e-05
1.05926e-05
1.06256e-05
1.06287e-05
1.06102e-05
1.05787e-05
1.05446e-05
1.05057e-05
1.04624e-05
1.0415e-05
1.03647e-05
1.03133e-05
1.02651e-05
1.02341e-05
1.02373e-05
1.03097e-05
1.05175e-05
1.09884e-05
1.19599e-05
1.38098e-05
1.68973e-05
2.09843e-05
2.50702e-05
2.77524e-05
2.82104e-05
2.71542e-05
2.51634e-05
2.25482e-05
2.00212e-05
1.81735e-05
1.71938e-05
1.6839e-05
1.67358e-05
1.66015e-05
1.62802e-05
1.57244e-05
1.49885e-05
1.41797e-05
1.34021e-05
1.27229e-05
1.2169e-05
1.17391e-05
1.14167e-05
1.11811e-05
1.10124e-05
1.08936e-05
1.0811e-05
1.07545e-05
1.0716e-05
1.06902e-05
1.0673e-05
1.06616e-05
1.06542e-05
1.06494e-05
1.06463e-05
1.06443e-05
1.06431e-05
1.06423e-05
1.06418e-05
1.06416e-05
1.06414e-05
1.06413e-05
1.06414e-05
1.06415e-05
1.01294e-05
1.00995e-05
9.98594e-06
9.90325e-06
1.00124e-05
1.03531e-05
1.08593e-05
1.14345e-05
1.19995e-05
1.2496e-05
1.28824e-05
1.31502e-05
1.33069e-05
1.33699e-05
1.33608e-05
1.33023e-05
1.32178e-05
1.31164e-05
1.29985e-05
1.2869e-05
1.27301e-05
1.25819e-05
1.24239e-05
1.22571e-05
1.20858e-05
1.19195e-05
1.17751e-05
1.16836e-05
1.16992e-05
1.19135e-05
1.24605e-05
1.34711e-05
1.49113e-05
1.64427e-05
1.74921e-05
1.7757e-05
1.73891e-05
1.65294e-05
1.58368e-05
1.5835e-05
1.65128e-05
1.75395e-05
1.85565e-05
1.92688e-05
1.95125e-05
1.92701e-05
1.86392e-05
1.77852e-05
1.68748e-05
1.60287e-05
1.53086e-05
1.47301e-05
1.42829e-05
1.39469e-05
1.36998e-05
1.3521e-05
1.33934e-05
1.33034e-05
1.32404e-05
1.31964e-05
1.31659e-05
1.31448e-05
1.31303e-05
1.31204e-05
1.31134e-05
1.31086e-05
1.31052e-05
1.31029e-05
1.31012e-05
1.31001e-05
1.30994e-05
1.30989e-05
1.30986e-05
1.30988e-05
1.31001e-05
1.01948e-05
1.01158e-05
1.00853e-05
1.05339e-05
1.15347e-05
1.28842e-05
1.43491e-05
1.57165e-05
1.68676e-05
1.77476e-05
1.83508e-05
1.8709e-05
1.88716e-05
1.88924e-05
1.88195e-05
1.86928e-05
1.85426e-05
1.83642e-05
1.81717e-05
1.79725e-05
1.77676e-05
1.75549e-05
1.73305e-05
1.70918e-05
1.68377e-05
1.65713e-05
1.63008e-05
1.60418e-05
1.58203e-05
1.56757e-05
1.56604e-05
1.58273e-05
1.61966e-05
1.67238e-05
1.73209e-05
1.79628e-05
1.87376e-05
1.98648e-05
2.14051e-05
2.32738e-05
2.51741e-05
2.67252e-05
2.76439e-05
2.78035e-05
2.72503e-05
2.61818e-05
2.48589e-05
2.35143e-05
2.2302e-05
2.12905e-05
2.04878e-05
1.98709e-05
1.94077e-05
1.90661e-05
1.88177e-05
1.86389e-05
1.85112e-05
1.84203e-05
1.83559e-05
1.83101e-05
1.82779e-05
1.82551e-05
1.82386e-05
1.82266e-05
1.82181e-05
1.82119e-05
1.82075e-05
1.82044e-05
1.82021e-05
1.82005e-05
1.81994e-05
1.81988e-05
1.81987e-05
1.81996e-05
1.82036e-05
1.03535e-05
1.05093e-05
1.15706e-05
1.38312e-05
1.68051e-05
1.97831e-05
2.23959e-05
2.4422e-05
2.58045e-05
2.66156e-05
2.69883e-05
2.70638e-05
2.69615e-05
2.677e-05
2.65486e-05
2.63326e-05
2.61208e-05
2.59247e-05
2.57544e-05
2.56117e-05
2.54941e-05
2.53978e-05
2.53198e-05
2.52594e-05
2.52189e-05
2.52051e-05
2.52295e-05
2.53106e-05
2.54757e-05
2.57638e-05
2.62283e-05
2.69371e-05
2.79692e-05
2.94049e-05
3.13179e-05
3.37574e-05
3.67007e-05
4.00256e-05
4.29905e-05
4.51668e-05
4.61801e-05
4.58614e-05
4.43247e-05
4.19137e-05
3.908e-05
3.62755e-05
3.37812e-05
3.17203e-05
3.00982e-05
2.88595e-05
2.79316e-05
2.72466e-05
2.67471e-05
2.63863e-05
2.61273e-05
2.59422e-05
2.581e-05
2.57159e-05
2.56488e-05
2.56005e-05
2.55655e-05
2.55402e-05
2.55221e-05
2.5509e-05
2.54997e-05
2.5493e-05
2.54883e-05
2.5485e-05
2.54826e-05
2.5481e-05
2.54801e-05
2.54797e-05
2.54804e-05
2.54834e-05
2.5492e-05
1.10768e-05
1.33165e-05
1.78921e-05
2.32439e-05
2.79975e-05
3.16348e-05
3.3966e-05
3.51295e-05
3.54498e-05
3.52625e-05
3.4826e-05
3.43105e-05
3.38156e-05
3.33928e-05
3.30619e-05
3.28241e-05
3.26724e-05
3.26074e-05
3.26286e-05
3.27365e-05
3.29347e-05
3.32314e-05
3.36423e-05
3.41917e-05
3.49139e-05
3.58551e-05
3.70746e-05
3.86471e-05
4.0665e-05
4.32398e-05
4.65016e-05
5.05894e-05
5.56254e-05
6.16612e-05
6.85859e-05
7.60139e-05
8.28416e-05
8.70327e-05
8.78975e-05
8.52387e-05
7.9636e-05
7.22224e-05
6.43152e-05
5.69601e-05
5.07545e-05
4.58218e-05
4.20485e-05
3.92148e-05
3.71124e-05
3.55675e-05
3.44427e-05
3.36309e-05
3.30497e-05
3.26363e-05
3.23438e-05
3.21377e-05
3.1993e-05
3.18919e-05
3.18212e-05
3.17724e-05
3.17388e-05
3.17158e-05
3.17002e-05
3.16899e-05
3.16831e-05
3.16788e-05
3.16761e-05
3.16745e-05
3.16736e-05
3.16733e-05
3.16735e-05
3.16743e-05
3.16768e-05
3.16831e-05
3.16973e-05
)
;

boundaryField
{
    ibCylinder
    {
        type            immersedBoundaryNutWallFunction;
        patchType       immersedBoundary;
        blending        stepwise;
        value           nonuniform List<scalar> 0();
    }
    in
    {
        type            zeroGradient;
    }
    out
    {
        type            zeroGradient;
    }
    top
    {
        type            zeroGradient;
    }
    bottom
    {
        type            zeroGradient;
    }
    frontAndBack
    {
        type            empty;
    }
}


// ************************************************************************* //
