/*--------------------------------*- C++ -*----------------------------------*\
| =========                 |                                                 |
| \\      /  F ield         | OpenFOAM: The Open Source CFD Toolbox           |
|  \\    /   O peration     | Version:  2206                                  |
|   \\  /    A nd           | Website:  www.openfoam.com                      |
|    \\/     M anipulation  |                                                 |
\*---------------------------------------------------------------------------*/
FoamFile
{
    version     2.0;
    format      ascii;
    arch        "LSB;label=32;scalar=64";
    class       volScalarField;
    location    "0.6";
    object      p;
}
// * * * * * * * * * * * * * * * * * * * * * * * * * * * * * * * * * * * * * //

dimensions      [0 2 -2 0 0 0 0];

internalField   nonuniform List<scalar> 
1875
(
3.51562
3.12599
2.87507
2.77746
2.71787
2.67106
2.6372
2.61349
2.59565
2.58102
2.56833
2.55684
2.54611
2.53584
2.5258
2.51577
2.5053
2.49404
2.48165
2.46773
2.45173
2.43304
2.41086
2.38422
2.35186
2.31214
2.26301
2.20192
2.12577
2.03107
1.91418
1.7719
1.60255
1.40777
1.19373
0.970393
0.74607
0.537659
0.360532
0.22188
0.122002
0.0565843
0.0188759
0.00130584
-0.00195993
0.00455319
0.0163923
0.0301209
0.044378
0.0581421
0.0707067
0.081616
0.0906142
0.0976137
0.102635
0.105765
0.107156
0.106998
0.105467
0.102751
0.0990435
0.0945089
0.0892944
0.0835237
0.0773068
0.0707308
0.0638677
0.0567767
0.049507
0.0420971
0.0345793
0.0269789
0.0193173
0.0116121
0.00387761
3.1403
2.98473
2.85614
2.77898
2.72603
2.68312
2.6492
2.62404
2.60431
2.58782
2.57353
2.56072
2.54893
2.53785
2.52716
2.51658
2.50572
2.4941
2.48143
2.46727
2.45107
2.43219
2.40982
2.38299
2.35043
2.31048
2.26106
2.1995
2.12258
2.02655
1.9074
1.76149
1.58663
1.38408
1.16068
0.927618
0.699163
0.489415
0.31829
0.191437
0.106702
0.0562444
0.030414
0.0199001
0.0188333
0.0243706
0.033448
0.0445245
0.0562625
0.0677675
0.078417
0.0877599
0.0955034
0.101498
0.105711
0.108194
0.109072
0.108505
0.106647
0.103666
0.0997485
0.0950583
0.089723
0.083853
0.0775592
0.0709266
0.0640177
0.0568907
0.049593
0.0421616
0.0346266
0.0270128
0.0193402
0.0116254
0.00388194
2.96328
2.9129
2.84244
2.78393
2.73653
2.69584
2.66264
2.63598
2.61421
2.59611
2.5805
2.56652
2.55377
2.54192
2.53064
2.51964
2.50858
2.49688
2.48424
2.47028
2.45448
2.43616
2.41455
2.38865
2.35716
2.31836
2.26998
2.20908
2.13189
2.03389
1.90996
1.75503
1.56543
1.34149
1.09153
0.831266
0.580133
0.361446
0.190776
0.0751741
0.017631
-0.00101149
0.000567588
0.0124169
0.0272638
0.0406541
0.0527465
0.0640406
0.0743678
0.0836909
0.0919611
0.0990435
0.104775
0.109041
0.1118
0.113084
0.112979
0.111599
0.109087
0.105594
0.101266
0.0962448
0.0906464
0.0845705
0.0781117
0.071352
0.0643444
0.0571405
0.0497826
0.0423038
0.034731
0.0270869
0.0193894
0.0116532
0.00388991
2.88385
2.86296
2.81806
2.77389
2.73595
2.70257
2.67299
2.64638
2.62463
2.60623
2.58942
2.57433
2.56086
2.5486
2.53707
2.52594
2.51497
2.50369
2.49169
2.47865
2.46413
2.44749
2.42802
2.40476
2.37625
2.34066
2.29551
2.23726
2.16123
2.06141
1.93038
1.76024
1.54413
1.27943
0.977003
0.660114
0.357446
0.122133
-0.0430629
-0.145888
-0.164484
-0.128821
-0.0779518
-0.0265316
0.0188168
0.0514576
0.0736922
0.0890615
0.0996742
0.107171
0.112657
0.116699
0.119507
0.121136
0.121604
0.120963
0.119275
0.116591
0.113023
0.10869
0.103691
0.0981333
0.0921122
0.0857086
0.0789939
0.0720278
0.0648611
0.0575338
0.0500799
0.0425257
0.0348933
0.0272013
0.0194643
0.0116946
0.00390135
2.83131
2.82051
2.79304
2.76096
2.73103
2.70351
2.67818
2.65467
2.63444
2.61644
2.59923
2.58403
2.57069
2.55822
2.54629
2.53503
2.52431
2.51375
2.50288
2.49141
2.47895
2.4649
2.44861
2.42944
2.40568
2.37514
2.33524
2.28181
2.20885
2.10817
1.96888
1.7783
1.5212
1.18636
0.793735
0.379184
0.0179241
-0.238081
-0.392444
-0.457452
-0.437925
-0.349743
-0.227357
-0.113253
-0.0197719
0.0444622
0.0888721
0.116583
0.131628
0.138545
0.14102
0.141178
0.140021
0.13799
0.135212
0.131849
0.127942
0.123419
0.118367
0.112876
0.106953
0.100666
0.0940737
0.0872243
0.080161
0.0729232
0.0655453
0.058052
0.0504689
0.042815
0.0351045
0.0273498
0.0195614
0.0117485
0.00391679
2.79501
2.78883
2.77139
2.7485
2.72509
2.70234
2.68064
2.66001
2.64097
2.62382
2.60799
2.59338
2.58024
2.56798
2.55623
2.54542
2.5354
2.52586
2.51647
2.50698
2.49715
2.48664
2.47484
2.46076
2.44304
2.41968
2.38776
2.34249
2.27649
2.17882
2.03331
1.81922
1.49989
1.08098
0.610295
0.102535
-0.376473
-0.663924
-0.793207
-0.821037
-0.730428
-0.578006
-0.398956
-0.218201
-0.0688715
0.0307012
0.0991804
0.14275
0.165014
0.173389
0.173721
0.169999
0.164438
0.158105
0.151476
0.144883
0.138347
0.131579
0.124729
0.117859
0.110818
0.103661
0.0963949
0.0890187
0.0815426
0.0739837
0.0663554
0.0586678
0.0509326
0.0431589
0.0353543
0.0275254
0.019677
0.0118138
0.00393672
2.76951
2.76559
2.75377
2.73698
2.71856
2.69982
2.68122
2.66314
2.64598
2.63006
2.61515
2.60104
2.588
2.57637
2.5658
2.5559
2.54668
2.53832
2.53069
2.52351
2.51671
2.51028
2.50352
2.49559
2.48566
2.4719
2.45126
2.41866
2.36571
2.27874
2.13454
1.89992
1.52752
1.08139
0.667031
0.235794
-0.522399
-0.970431
-1.08542
-1.13817
-1.00612
-0.771649
-0.523772
-0.300657
-0.114826
0.021025
0.109366
0.166228
0.196426
0.207587
0.206807
0.19971
0.189862
0.179207
0.168748
0.15882
0.149377
0.140256
0.131635
0.123307
0.115003
0.106887
0.0988906
0.0909507
0.083033
0.0751308
0.0672341
0.059337
0.0514379
0.0435355
0.0356291
0.0277188
0.0198043
0.011886
0.00395983
2.75114
2.74838
2.73982
2.72708
2.71232
2.69668
2.68068
2.66475
2.64929
2.63454
2.62058
2.60745
2.59531
2.58425
2.57415
2.56495
2.55687
2.54999
2.54423
2.53958
2.53608
2.53379
2.53237
2.53138
2.53037
2.52792
2.52133
2.50595
2.47344
2.40941
2.28712
2.06034
1.69679
1.26181
0.573831
0
0
0
0
0
-0.87948
-0.75996
-0.517804
-0.307016
-0.121161
0.0291328
0.130856
0.195101
0.229757
0.241218
0.238266
0.227678
0.213908
0.199473
0.185432
0.172244
0.160037
0.148792
0.138448
0.128605
0.119186
0.110205
0.101454
0.0929107
0.0845331
0.0762825
0.0681174
0.0600106
0.0519478
0.0439169
0.0359086
0.0279161
0.0199346
0.01196
0.0039845
2.73783
2.73571
2.72914
2.71907
2.70694
2.69364
2.67965
2.66542
2.65134
2.63769
2.62463
2.61232
2.6009
2.59043
2.58101
2.57272
2.56574
2.56023
2.5563
2.55407
2.55375
2.55554
2.55954
2.56576
2.57405
2.58371
2.59294
2.59819
2.59237
2.5633
2.48446
2.30682
2.04905
0
0
0
0
0
0
0
0
-0.566305
-0.380076
-0.21746
-0.0689786
0.0650143
0.163979
0.227686
0.261532
0.271764
0.266567
0.252921
0.235624
0.217594
0.20028
0.184284
0.169775
0.156589
0.144519
0.133373
0.123011
0.113227
0.103826
0.0947596
0.0859697
0.0773822
0.0689524
0.0606438
0.0524266
0.0442756
0.036172
0.0281028
0.0200581
0.0120301
0.00400854
2.72837
2.72664
2.7213
2.71296
2.70265
2.69104
2.67855
2.66561
2.6526
2.63985
2.62755
2.6159
2.60507
2.59522
2.58649
2.579
2.57293
2.56858
2.56625
2.56618
2.56869
2.5742
2.58315
2.59597
2.61305
2.63446
2.65955
2.68624
2.7093
2.71916
2.68204
2.57636
2.49141
0
0
0
0
0
0
0
0
0
-0.251985
-0.107498
0.00462214
0.115581
0.202278
0.259875
0.289983
0.297584
0.289869
0.273472
0.253245
0.232389
0.212548
0.194335
0.177894
0.163108
0.149686
0.137428
0.126166
0.115677
0.105776
0.0962953
0.0871809
0.0783323
0.0696785
0.0611982
0.0528458
0.044588
0.0364011
0.0282656
0.0201663
0.012091
0.00402992
2.72203
2.72055
2.71594
2.70869
2.69956
2.68907
2.67762
2.66559
2.65335
2.64125
2.62951
2.61835
2.60798
2.5986
2.59041
2.58357
2.57827
2.57479
2.57367
2.57527
2.58003
2.58851
2.60143
2.61961
2.64395
2.67528
2.71405
2.75968
2.80902
2.8541
2.85876
2.83606
0
0
0
0
0
0
0
0
0
0
0
-0.0154186
0.0728459
0.16471
0.237807
0.287381
0.313146
0.317828
0.307813
0.288944
0.266305
0.243337
0.221633
0.201783
0.183927
0.167939
0.153551
0.140524
0.128611
0.117584
0.107251
0.0974394
0.0880615
0.0790191
0.0702205
0.0616201
0.0531687
0.04483
0.0365794
0.0283927
0.0202514
0.0121399
0.00404734
2.71839
2.71703
2.71283
2.70616
2.69769
2.68786
2.67701
2.66552
2.65375
2.64204
2.63065
2.61979
2.6097
2.6006
2.59272
2.58629
2.58156
2.57871
2.57826
2.5809
2.5871
2.59749
2.61298
2.63467
2.66381
2.70178
2.74983
2.8086
2.87653
2.94746
2.99824
3.10427
0
0
0
0
0
0
0
0
0
0
0
0.0516105
0.122202
0.198765
0.263072
0.30642
0.32865
0.331252
0.319459
0.29863
0.274362
0.250094
0.227239
0.206374
0.187652
0.170935
0.155959
0.142445
0.130129
0.118772
0.108174
0.0981662
0.0886248
0.0794504
0.0705539
0.0618751
0.0533631
0.0449789
0.0366906
0.028472
0.0203044
0.0121709
0.00405883
2.7172
2.71588
2.7118
2.70532
2.69706
2.68744
2.6768
2.66548
2.65387
2.64229
2.63102
2.62026
2.61026
2.60125
2.59347
2.58715
2.58267
2.58014
2.57983
2.5828
2.5895
2.60055
2.61693
2.63984
2.67065
2.71095
2.76229
2.82577
2.90063
2.98242
3.05373
3.22295
0
0
0
0
0
0
0
0
0
0
0
0.0847083
0.141173
0.211022
0.272329
0.313297
0.334164
0.336292
0.323676
0.301864
0.277013
0.25235
0.229125
0.207922
0.18891
0.171949
0.156773
0.143094
0.130641
0.119174
0.108488
0.0984122
0.0888168
0.0795979
0.0706678
0.0619617
0.053428
0.0450277
0.0367263
0.0284976
0.0203216
0.0121806
0.00406239
2.71839
2.71703
2.71282
2.70616
2.69769
2.68785
2.67701
2.66551
2.65374
2.64203
2.63064
2.61979
2.6097
2.6006
2.59272
2.58629
2.58156
2.57871
2.57826
2.5809
2.5871
2.59749
2.61298
2.63467
2.66381
2.70178
2.74983
2.8086
2.87653
2.94747
2.99826
3.10431
0
0
0
0
0
0
0
0
0
0
0
0.0516448
0.122202
0.198762
0.263072
0.306424
0.328655
0.331254
0.319457
0.298627
0.274358
0.25009
0.227234
0.20637
0.187647
0.170931
0.155954
0.142441
0.130125
0.118769
0.108171
0.0981632
0.088622
0.0794478
0.0705516
0.0618729
0.0533613
0.0449773
0.0366893
0.028471
0.0203037
0.0121705
0.00405869
2.72203
2.72054
2.71594
2.70868
2.69955
2.68907
2.67762
2.66558
2.65335
2.64124
2.62951
2.61835
2.60798
2.5986
2.5904
2.58356
2.57827
2.57478
2.57366
2.57527
2.58003
2.5885
2.60142
2.61961
2.64395
2.67528
2.71404
2.75968
2.80902
2.85411
2.8588
2.83612
0
0
0
0
0
0
0
0
0
0
0
-0.0154341
0.0728343
0.164702
0.237805
0.287383
0.313148
0.317827
0.307806
0.288936
0.266296
0.243327
0.221623
0.201774
0.183918
0.16793
0.153542
0.140516
0.128603
0.117577
0.107244
0.0974333
0.0880559
0.0790139
0.0702158
0.0616159
0.053165
0.0448268
0.0365768
0.0283907
0.02025
0.0121391
0.00404706
2.72836
2.72663
2.72129
2.71295
2.70264
2.69103
2.67854
2.6656
2.6526
2.63984
2.62754
2.61589
2.60506
2.59521
2.58648
2.57899
2.57292
2.56857
2.56625
2.56618
2.56869
2.5742
2.58314
2.59597
2.61304
2.63445
2.65954
2.68624
2.7093
2.71918
2.68207
2.5764
2.49145
0
0
0
0
0
0
0
0
0
-0.252006
-0.10752
0.00460678
0.115574
0.202272
0.259869
0.289976
0.297573
0.289856
0.273457
0.25323
0.232373
0.212533
0.19432
0.17788
0.163095
0.149674
0.137416
0.126155
0.115667
0.105767
0.0962862
0.0871725
0.0783247
0.0696715
0.0611919
0.0528402
0.0445833
0.0363973
0.0282626
0.0201642
0.0120898
0.00402952
2.73781
2.7357
2.72913
2.71905
2.70693
2.69363
2.67964
2.66541
2.65133
2.63767
2.62462
2.61231
2.60088
2.59042
2.581
2.5727
2.56572
2.56022
2.55629
2.55407
2.55374
2.55553
2.55953
2.56575
2.57404
2.58369
2.59292
2.59818
2.59236
2.5633
2.48449
2.30685
2.04906
0
0
0
0
0
0
0
0
-0.566342
-0.380082
-0.217476
-0.068992
0.065006
0.163968
0.227669
0.261513
0.271743
0.266544
0.252899
0.235602
0.217573
0.200259
0.184265
0.169756
0.156571
0.144503
0.133357
0.122996
0.113212
0.103813
0.0947476
0.0859586
0.0773722
0.0689432
0.0606355
0.0524193
0.0442694
0.036167
0.028099
0.0200554
0.0120285
0.00400801
2.75113
2.74836
2.73981
2.72707
2.71231
2.69666
2.68066
2.66474
2.64927
2.63453
2.62056
2.60743
2.5953
2.58424
2.57413
2.56494
2.55685
2.54997
2.54422
2.53957
2.53607
2.53378
2.53236
2.53137
2.53035
2.52791
2.52132
2.50593
2.47342
2.4094
2.28712
2.06035
1.69678
1.26176
0.573314
0
0
0
0
0
-0.879498
-0.760039
-0.517839
-0.307021
-0.121164
0.0291246
0.130838
0.195076
0.229729
0.241189
0.238236
0.227648
0.213879
0.199446
0.185407
0.172219
0.160014
0.14877
0.138428
0.128586
0.119167
0.110187
0.101438
0.0928958
0.0845195
0.0762701
0.0681061
0.0600005
0.0519388
0.0439093
0.0359024
0.0279114
0.0199313
0.0119581
0.00398385
2.76949
2.76557
2.75375
2.73696
2.71855
2.6998
2.68121
2.66313
2.64596
2.63004
2.61513
2.60102
2.58798
2.57635
2.56578
2.55588
2.54666
2.5383
2.53068
2.52349
2.5167
2.51026
2.50351
2.49558
2.48564
2.47188
2.45124
2.41864
2.36569
2.27873
2.13454
1.89993
1.52755
1.08142
0.667066
0.235821
-0.522336
-0.970346
-1.08534
-1.13815
-1.00612
-0.771669
-0.523795
-0.300646
-0.114828
0.0210053
0.109341
0.166196
0.19639
0.20755
0.206769
0.199673
0.189827
0.179175
0.168717
0.158791
0.14935
0.14023
0.13161
0.123284
0.114981
0.106866
0.0988716
0.0909332
0.083017
0.0751162
0.0672208
0.0593251
0.0514274
0.0435266
0.0356219
0.0277132
0.0198005
0.0118837
0.00395905
2.79499
2.78881
2.77137
2.74848
2.72506
2.70232
2.68061
2.65999
2.64095
2.6238
2.60797
2.59336
2.58022
2.56796
2.5562
2.5454
2.53537
2.52583
2.51645
2.50696
2.49713
2.48663
2.47482
2.46074
2.44301
2.41966
2.38773
2.34247
2.27647
2.17881
2.0333
1.81922
1.4999
1.081
0.61034
0.102572
-0.376435
-0.663885
-0.793189
-0.821046
-0.730449
-0.578024
-0.398968
-0.218196
-0.0688853
0.0306653
0.099141
0.142709
0.164972
0.173345
0.173678
0.169958
0.164398
0.158067
0.151441
0.14485
0.138315
0.131549
0.1247
0.117832
0.110794
0.103637
0.0963733
0.0889989
0.0815244
0.0739672
0.0663404
0.0586543
0.0509208
0.0431488
0.0353461
0.0275191
0.0196726
0.0118112
0.00393582
2.83128
2.82049
2.79302
2.76094
2.731
2.70349
2.67816
2.65465
2.63442
2.61641
2.5992
2.584
2.57067
2.5582
2.54626
2.535
2.52429
2.51372
2.50286
2.49138
2.47893
2.46487
2.44859
2.42942
2.40566
2.37511
2.33522
2.28178
2.20882
2.10816
1.96887
1.7783
1.52121
1.18638
0.793765
0.379196
0.0179336
-0.238075
-0.39245
-0.457462
-0.437948
-0.349765
-0.227379
-0.113273
-0.0197989
0.0444273
0.0888309
0.11654
0.131582
0.138498
0.140974
0.141133
0.139978
0.137949
0.135173
0.131812
0.127907
0.123386
0.118336
0.112847
0.106926
0.10064
0.0940498
0.0872023
0.0801409
0.0729049
0.0655288
0.0580372
0.0504559
0.042804
0.0350955
0.0273428
0.0195565
0.0117456
0.00391576
2.88382
2.86293
2.81804
2.77387
2.73593
2.70255
2.67296
2.64636
2.62461
2.6062
2.5894
2.5743
2.56084
2.54857
2.53704
2.52592
2.51494
2.50366
2.49167
2.47863
2.4641
2.44746
2.428
2.40474
2.37622
2.34063
2.29548
2.23724
2.16121
2.06139
1.93037
1.76024
1.54413
1.27944
0.977016
0.66012
0.357448
0.12213
-0.043069
-0.145899
-0.164501
-0.128843
-0.0779753
-0.0265551
0.0187872
0.0514221
0.073651
0.0890166
0.0996267
0.107122
0.112608
0.116651
0.11946
0.121092
0.121563
0.120923
0.119237
0.116555
0.112989
0.108658
0.103662
0.0981057
0.0920865
0.085685
0.0789724
0.0720081
0.0648433
0.0575179
0.050066
0.0425139
0.0348836
0.0271938
0.0194589
0.0116914
0.00390022
2.96325
2.91288
2.84242
2.7839
2.73651
2.69581
2.66262
2.63595
2.61418
2.59609
2.58048
2.5665
2.55374
2.54189
2.53061
2.51961
2.50855
2.49685
2.48421
2.47026
2.45445
2.43613
2.41452
2.38862
2.35713
2.31833
2.26995
2.20905
2.13187
2.03387
1.90995
1.75502
1.56543
1.34149
1.09153
0.831267
0.580131
0.361441
0.190765
0.0751598
0.0176114
-0.00103511
0.000543556
0.0123925
0.027235
0.0406177
0.0527036
0.0639936
0.0743181
0.0836397
0.0919098
0.0989935
0.104727
0.108995
0.111757
0.113042
0.11294
0.111562
0.109051
0.105561
0.101235
0.0962157
0.0906193
0.0845455
0.0780887
0.0713313
0.0643257
0.0571238
0.049768
0.0422913
0.0347208
0.027079
0.0193838
0.0116499
0.00388874
3.14027
2.9847
2.85611
2.77895
2.726
2.68309
2.64917
2.62401
2.60428
2.5878
2.5735
2.56069
2.54891
2.53782
2.52713
2.51656
2.50569
2.49407
2.4814
2.46724
2.45105
2.43216
2.40979
2.38296
2.3504
2.31045
2.26103
2.19947
2.12256
2.02653
1.90739
1.76148
1.58662
1.38408
1.16068
0.927615
0.699158
0.489406
0.318278
0.191421
0.106681
0.0562206
0.0303876
0.0198725
0.0188039
0.024332
0.0334031
0.044477
0.056212
0.0677158
0.0783653
0.0877093
0.0954545
0.101452
0.105666
0.108151
0.109032
0.108467
0.10661
0.103632
0.0997164
0.0950283
0.0896951
0.0838273
0.0775357
0.0709053
0.0639985
0.0568736
0.049578
0.0421488
0.0346161
0.0270047
0.0193344
0.011622
0.00388075
3.51559
3.12597
2.87504
2.77743
2.71784
2.67104
2.63717
2.61346
2.59562
2.581
2.5683
2.55681
2.54608
2.53581
2.52578
2.51574
2.50527
2.49401
2.48162
2.4677
2.4517
2.43301
2.41083
2.38419
2.35183
2.31211
2.26298
2.20189
2.12574
2.03105
1.91416
1.77188
1.60254
1.40777
1.19373
0.970388
0.746063
0.537648
0.360518
0.221863
0.12198
0.0565575
0.0188466
0.00127511
-0.00199424
0.00451429
0.0163483
0.030074
0.0443283
0.0580916
0.0706557
0.081566
0.0905653
0.097567
0.10259
0.105722
0.107115
0.106959
0.10543
0.102716
0.099011
0.0944787
0.0892662
0.0834978
0.077283
0.0707094
0.0638483
0.0567595
0.0494918
0.0420843
0.0345686
0.0269707
0.0193114
0.0116085
0.00387638
)
;

boundaryField
{
    ibCylinder
    {
        type            zeroGradientIb;
        patchType       immersedBoundary;
        setDeadValue    true;
        deadValue       0;
        value           nonuniform List<scalar> 0();
    }
    in
    {
        type            zeroGradient;
    }
    out
    {
        type            fixedValue;
        value           uniform 0;
    }
    top
    {
        type            zeroGradient;
    }
    bottom
    {
        type            zeroGradient;
    }
    frontAndBack
    {
        type            empty;
    }
}


// ************************************************************************* //
