/*--------------------------------*- C++ -*----------------------------------*\
| =========                 |                                                 |
| \\      /  F ield         | OpenFOAM: The Open Source CFD Toolbox           |
|  \\    /   O peration     | Version:  2206                                  |
|   \\  /    A nd           | Website:  www.openfoam.com                      |
|    \\/     M anipulation  |                                                 |
\*---------------------------------------------------------------------------*/
FoamFile
{
    version     2.0;
    format      ascii;
    arch        "LSB;label=32;scalar=64";
    class       surfaceVectorField;
    location    "0.6";
    object      Uf;
}
// * * * * * * * * * * * * * * * * * * * * * * * * * * * * * * * * * * * * * //

dimensions      [0 1 -1 0 0 0 0];

internalField   nonuniform List<vector> 
3650
(
(0.859685 0.0533402 0)
(0.90322 0.140315 0)
(0.701082 0.0847391 0)
(0.900158 0.158602 0)
(0.566854 0.0661497 0)
(0.842908 0.134228 0)
(0.463251 0.0366906 0)
(0.751738 0.103603 0)
(0.387106 0.0190253 0)
(0.67142 0.0761455 0)
(0.333077 0.01036 0)
(0.605878 0.0540288 0)
(0.29505 0.00562666 0)
(0.553386 0.0380267 0)
(0.268308 0.00300007 0)
(0.511066 0.0267427 0)
(0.249264 0.00159892 0)
(0.477689 0.0190437 0)
(0.235504 0.000843296 0)
(0.451718 0.0137601 0)
(0.225555 0.000400479 0)
(0.431692 0.00994873 0)
(0.21851 0.000103325 0)
(0.416505 0.00704571 0)
(0.213818 -0.000137657 0)
(0.405362 0.00469154 0)
(0.211149 -0.000363642 0)
(0.397689 0.00266952 0)
(0.210294 -0.000600909 0)
(0.393124 0.000854703 0)
(0.211011 -0.000873377 0)
(0.391345 -0.000717255 0)
(0.213159 -0.00117822 0)
(0.391914 -0.00214816 0)
(0.216843 -0.001521 0)
(0.394813 -0.00368328 0)
(0.222152 -0.00193072 0)
(0.400086 -0.00530901 0)
(0.229251 -0.00243188 0)
(0.40781 -0.00709941 0)
(0.238405 -0.00304968 0)
(0.418209 -0.00915384 0)
(0.24999 -0.00381561 0)
(0.431647 -0.0115851 0)
(0.26451 -0.00476499 0)
(0.44864 -0.0145201 0)
(0.282599 -0.00593229 0)
(0.469874 -0.0180891 0)
(0.305009 -0.00734359 0)
(0.496195 -0.0224102 0)
(0.332575 -0.00900588 0)
(0.528579 -0.0275664 0)
(0.366161 -0.0108922 0)
(0.568088 -0.033586 0)
(0.406556 -0.0129164 0)
(0.615786 -0.0403953 0)
(0.454299 -0.0149003 0)
(0.672602 -0.0477438 0)
(0.509417 -0.0165403 0)
(0.739097 -0.0551186 0)
(0.571075 -0.0173801 0)
(0.815149 -0.0616584 0)
(0.637155 -0.0167977 0)
(0.899505 -0.066081 0)
(0.703813 -0.0140784 0)
(0.989239 -0.066658 0)
(0.765171 -0.00881043 0)
(1.07956 -0.0613588 0)
(0.813749 -0.00144857 0)
(1.16308 -0.0485781 0)
(0.841813 0.00674161 0)
(1.23037 -0.0280642 0)
(0.843453 0.0150034 0)
(1.26964 -0.00164006 0)
(0.820199 0.0224064 0)
(1.27666 0.0232544 0)
(0.772653 0.0270849 0)
(1.25111 0.0475462 0)
(0.705899 0.0279667 0)
(1.1928 0.0667546 0)
(0.628037 0.0255072 0)
(1.10738 0.0778624 0)
(0.548182 0.0210845 0)
(1.00483 0.0798546 0)
(0.473739 0.0166867 0)
(0.896383 0.0744437 0)
(0.40892 0.0138083 0)
(0.790603 0.0648194 0)
(0.355132 0.0100948 0)
(0.697367 0.0537884 0)
(0.312001 0.00612811 0)
(0.617294 0.0431309 0)
(0.278473 0.00409144 0)
(0.552124 0.0335288 0)
(0.252968 0.00272158 0)
(0.500829 0.0255056 0)
(0.234035 0.0017314 0)
(0.461551 0.0189332 0)
(0.220335 0.00101747 0)
(0.432241 0.0137001 0)
(0.210697 0.00051027 0)
(0.41089 0.0096386 0)
(0.204135 0.000161261 0)
(0.3957 0.00656267 0)
(0.199845 -6.72713e-05 0)
(0.385159 0.00429032 0)
(0.197186 -0.000206466 0)
(0.378043 0.00265892 0)
(0.19566 -0.000280379 0)
(0.373384 0.00152556 0)
(0.194898 -0.000309792 0)
(0.370448 0.000762854 0)
(0.194631 -0.000311805 0)
(0.368697 0.000267069 0)
(0.194671 -0.000295339 0)
(0.367738 -4.04276e-05 0)
(0.19488 -0.000266545 0)
(0.36728 -0.000208951 0)
(0.195169 -0.000233566 0)
(0.367144 -0.000288512 0)
(0.195485 -0.000200165 0)
(0.367194 -0.000316204 0)
(0.195798 -0.000168559 0)
(0.367349 -0.000312509 0)
(0.19609 -0.000140091 0)
(0.367549 -0.000292014 0)
(0.196351 -0.000115187 0)
(0.367766 -0.000260813 0)
(0.196578 -9.42142e-05 0)
(0.367975 -0.000227333 0)
(0.196772 -7.61867e-05 0)
(0.368168 -0.000193792 0)
(0.196934 -6.096e-05 0)
(0.368339 -0.000161973 0)
(0.197067 -4.83736e-05 0)
(0.368487 -0.000133622 0)
(0.197176 -3.78937e-05 0)
(0.368611 -0.000108424 0)
(0.197262 -2.92163e-05 0)
(0.368713 -8.65036e-05 0)
(0.19733 -2.20159e-05 0)
(0.368795 -6.76141e-05 0)
(0.197381 -1.59232e-05 0)
(0.36886 -5.12447e-05 0)
(0.197418 -1.06122e-05 0)
(0.368908 -3.6822e-05 0)
(0.197442 -5.98668e-06 0)
(0.368942 -2.36954e-05 0)
(0.368962 -1.11861e-05 0)
(1.05169 0.155105 0)
(1.01329 0.08863 0)
(1.04728 0.183455 0)
(1.05543 0.163005 0)
(1.01025 0.168549 0)
(1.06742 0.171266 0)
(0.954804 0.143661 0)
(1.0489 0.159045 0)
(0.890147 0.113578 0)
(1.01345 0.140803 0)
(0.82578 0.0848248 0)
(0.970677 0.118395 0)
(0.768299 0.062003 0)
(0.92705 0.0955075 0)
(0.719721 0.04521 0)
(0.884374 0.0753211 0)
(0.67978 0.0330778 0)
(0.845237 0.0589852 0)
(0.647677 0.0241629 0)
(0.811252 0.0458628 0)
(0.622489 0.0173972 0)
(0.782697 0.0351371 0)
(0.60324 0.0120461 0)
(0.759375 0.0262944 0)
(0.589132 0.0076069 0)
(0.740929 0.0187998 0)
(0.579554 0.00378013 0)
(0.727031 0.0122477 0)
(0.574009 0.000461563 0)
(0.717377 0.00639909 0)
(0.572108 -0.00245187 0)
(0.71172 0.00118373 0)
(0.573437 -0.00530157 0)
(0.709689 -0.00347735 0)
(0.577889 -0.00829686 0)
(0.711036 -0.00813484 0)
(0.585537 -0.0114814 0)
(0.715773 -0.0129572 0)
(0.596523 -0.0150267 0)
(0.723955 -0.0180849 0)
(0.611155 -0.0191319 0)
(0.735779 -0.0237864 0)
(0.62993 -0.0240101 0)
(0.751606 -0.03036 0)
(0.653546 -0.0298814 0)
(0.771984 -0.0381358 0)
(0.682898 -0.0369513 0)
(0.797691 -0.0474412 0)
(0.719067 -0.0453841 0)
(0.829683 -0.0585793 0)
(0.763261 -0.0552665 0)
(0.869115 -0.0717604 0)
(0.816759 -0.0665489 0)
(0.917305 -0.0870845 0)
(0.880801 -0.0789496 0)
(0.975669 -0.104437 0)
(0.95639 -0.0918329 0)
(1.0456 -0.123333 0)
(1.044 -0.104072 0)
(1.12825 -0.142731 0)
(1.1432 -0.113914 0)
(1.22424 -0.160855 0)
(1.25205 -0.118928 0)
(1.33319 -0.174933 0)
(1.36657 -0.116034 0)
(1.45301 -0.181175 0)
(1.47991 -0.102023 0)
(1.57902 -0.174702 0)
(1.58223 -0.0747889 0)
(1.70306 -0.150901 0)
(1.66184 -0.0348962 0)
(1.81275 -0.107673 0)
(1.70658 0.00982583 0)
(1.89437 -0.0463781 0)
(1.70924 0.0538828 0)
(1.93549 0.0205875 0)
(1.67146 0.0950414 0)
(1.93331 0.0853315 0)
(1.59345 0.12625 0)
(1.88634 0.144764 0)
(1.48275 0.142555 0)
(1.79757 0.188562 0)
(1.35141 0.143736 0)
(1.67677 0.211195 0)
(1.21248 0.132974 0)
(1.5367 0.213374 0)
(1.07837 0.115038 0)
(1.38962 0.198933 0)
(0.95831 0.0946637 0)
(1.24783 0.173848 0)
(0.856628 0.0751663 0)
(1.12063 0.144813 0)
(0.77391 0.0581005 0)
(1.01237 0.116247 0)
(0.708949 0.0438056 0)
(0.924048 0.0904675 0)
(0.659384 0.0322405 0)
(0.854623 0.0684984 0)
(0.622503 0.0231552 0)
(0.801669 0.0505812 0)
(0.595675 0.0161975 0)
(0.762271 0.0364674 0)
(0.576572 0.0109921 0)
(0.733586 0.0256653 0)
(0.563259 0.00719043 0)
(0.713109 0.0176036 0)
(0.554185 0.00448756 0)
(0.698767 0.0117328 0)
(0.548149 0.00261803 0)
(0.688903 0.0075623 0)
(0.544247 0.00136092 0)
(0.682242 0.00466498 0)
(0.541816 0.000544721 0)
(0.67784 0.00269847 0)
(0.540369 4.43889e-05 0)
(0.675002 0.00140646 0)
(0.539571 -0.000238256 0)
(0.67322 0.000588723 0)
(0.539195 -0.000383135 0)
(0.672152 8.76173e-05 0)
(0.539081 -0.000441803 0)
(0.671553 -0.000202458 0)
(0.539122 -0.000447766 0)
(0.671257 -0.000353066 0)
(0.539246 -0.000423431 0)
(0.671143 -0.000416065 0)
(0.539408 -0.000382542 0)
(0.671142 -0.000422052 0)
(0.539579 -0.000334636 0)
(0.671204 -0.000398821 0)
(0.539748 -0.000285695 0)
(0.671297 -0.000362259 0)
(0.539902 -0.000239581 0)
(0.671401 -0.000316497 0)
(0.540038 -0.000197635 0)
(0.671506 -0.000269762 0)
(0.540155 -0.000160153 0)
(0.671602 -0.000224866 0)
(0.540252 -0.000127216 0)
(0.671686 -0.000183266 0)
(0.54033 -9.84217e-05 0)
(0.671758 -0.000145727 0)
(0.54039 -7.3059e-05 0)
(0.671816 -0.000111876 0)
(0.540435 -5.02707e-05 0)
(0.671861 -8.12809e-05 0)
(0.540464 -2.88682e-05 0)
(0.671892 -5.31028e-05 0)
(0.671911 -2.42186e-05 0)
(1.03948 0.111337 0)
(1.00908 0.0491495 0)
(1.08197 0.157815 0)
(1.04736 0.120516 0)
(1.1029 0.165593 0)
(1.08759 0.150339 0)
(1.10539 0.159775 0)
(1.11054 0.156549 0)
(1.09397 0.147928 0)
(1.1169 0.152227 0)
(1.07184 0.130411 0)
(1.11448 0.140525 0)
(1.04251 0.109756 0)
(1.10208 0.124838 0)
(1.00945 0.0895793 0)
(1.08361 0.108381 0)
(0.976422 0.0718548 0)
(1.0617 0.0920115 0)
(0.946062 0.0568082 0)
(1.039 0.0762233 0)
(0.919456 0.0440414 0)
(1.01694 0.0617427 0)
(0.896961 0.0330473 0)
(0.996643 0.0487892 0)
(0.878724 0.0233791 0)
(0.97883 0.0370369 0)
(0.864756 0.014737 0)
(0.963985 0.0262159 0)
(0.85495 0.00695958 0)
(0.95237 0.0162057 0)
(0.849146 -3.67585e-05 0)
(0.944113 0.00698735 0)
(0.847182 -0.00656285 0)
(0.939245 -0.0015129 0)
(0.848776 -0.0131033 0)
(0.937675 -0.00972975 0)
(0.854009 -0.0199269 0)
(0.939427 -0.01819 0)
(0.862995 -0.0272662 0)
(0.944621 -0.0270708 0)
(0.875972 -0.0354936 0)
(0.95344 -0.0367633 0)
(0.893337 -0.045034 0)
(0.966187 -0.0477253 0)
(0.915729 -0.0563385 0)
(0.983291 -0.0605276 0)
(0.943972 -0.0698205 0)
(1.00555 -0.0756837 0)
(0.979106 -0.0858146 0)
(1.03369 -0.0937137 5.25825e-34)
(1.0224 -0.104557 0)
(1.06896 -0.115057 -5.18817e-34)
(1.07533 -0.126088 0)
(1.1128 -0.140011 0)
(1.13948 -0.150079 0)
(1.16696 -0.168592 0)
(1.21646 -0.175623 0)
(1.23337 -0.200311 0)
(1.30763 -0.20098 0)
(1.31413 -0.233896 0)
(1.41376 -0.223298 0)
(1.41116 -0.266993 0)
(1.53446 -0.238371 0)
(1.52583 -0.29563 0)
(1.66701 -0.240469 0)
(1.65852 -0.313726 0)
(1.80468 -0.223229 0)
(1.80461 -0.312367 0)
(1.93662 -0.18202 0)
(1.95319 -0.282846 0)
(2.04869 -0.115932 0)
(2.08874 -0.219742 0)
(2.12643 -0.0318005 0)
(2.19234 -0.124123 0)
(2.16089 0.054893 0)
(2.26304 -0.0138679 0)
(2.14835 0.13683 0)
(2.27141 0.097875 0)
(2.08858 0.208668 0)
(2.23977 0.204526 0)
(1.9895 0.258449 0)
(2.16857 0.28765 0)
(1.86055 0.281456 0)
(2.05897 0.340142 0)
(1.71272 0.279671 0)
(1.92437 0.361207 0)
(1.55838 0.25817 0)
(1.77567 0.353267 0)
(1.40974 0.224382 0)
(1.62341 0.322486 0)
(1.27606 0.18609 0)
(1.47837 0.278498 0)
(1.16218 0.148673 0)
(1.34859 0.230126 0)
(1.06945 0.1151 0)
(1.23844 0.183196 0)
(0.99667 0.0866947 0)
(1.14911 0.141281 0)
(0.941228 0.0637024 0)
(1.07925 0.106023 0)
(0.900012 0.0457322 0)
(1.02614 0.0776837 0)
(0.869996 0.0320857 0)
(0.986676 0.0556812 0)
(0.848531 0.0219802 0)
(0.957904 0.0390688 0)
(0.833435 0.0146737 0)
(0.937286 0.0268292 0)
(0.822974 0.00950724 0)
(0.922731 0.0180229 0)
(0.815831 0.00592653 0)
(0.912574 0.011808 0)
(0.811036 0.00350348 0)
(0.905579 0.00749348 0)
(0.807871 0.00190895 0)
(0.900834 0.00457207 0)
(0.805823 0.000885552 0)
(0.897649 0.00263658 0)
(0.804533 0.000249968 0)
(0.895538 0.00137763 0)
(0.803748 -0.000124846 0)
(0.894164 0.000582392 0)
(0.803296 -0.000327784 0)
(0.893289 9.95153e-05 0)
(0.803056 -0.00041834 0)
(0.892746 -0.000176589 0)
(0.802953 -0.000441094 0)
(0.892424 -0.000319067 0)
(0.802934 -0.000428395 0)
(0.892251 -0.00037905 0)
(0.802962 -0.00039414 0)
(0.892168 -0.000390405 0)
(0.803014 -0.000347078 0)
(0.892139 -0.000368369 0)
(0.803076 -0.000296939 0)
(0.892145 -0.000332102 0)
(0.803139 -0.000247758 0)
(0.892169 -0.000288133 0)
(0.803198 -0.000201477 0)
(0.8922 -0.00024153 0)
(0.803248 -0.000158836 0)
(0.892232 -0.000196369 0)
(0.80329 -0.000119745 0)
(0.892262 -0.000153181 0)
(0.803321 -8.38113e-05 0)
(0.892286 -0.00011246 0)
(0.803342 -4.83288e-05 0)
(0.892304 -7.41688e-05 0)
(0.892312 -3.25165e-05 0)
(1.01971 0.066695 0)
(1.0042 0.0294414 0)
(1.05943 0.11354 0)
(1.02713 0.0807951 0)
(1.09576 0.13886 0)
(1.06413 0.114013 0)
(1.12138 0.146929 0)
(1.09769 0.130927 0)
(1.13743 0.144048 0)
(1.12156 0.13617 0)
(1.14454 0.135146 0)
(1.13931 0.133422 0)
(1.14321 0.123755 0)
(1.14813 0.126164 0)
(1.13556 0.111018 0)
(1.15091 0.116036 0)
(1.12395 0.0967329 0)
(1.14955 0.103619 0)
(1.10978 0.0815208 0)
(1.14356 0.0903898 0)
(1.09406 0.0666752 0)
(1.13512 0.0774651 0)
(1.07842 0.0527881 0)
(1.12523 0.0644327 0)
(1.06399 0.0398326 0)
(1.11488 0.0514658 0)
(1.0515 0.0277172 0)
(1.10491 0.0386977 0)
(1.04144 0.0163666 0)
(1.09588 0.0262692 0)
(1.03407 0.0056981 0)
(1.08836 0.0143591 0)
(1.02964 -0.00445054 0)
(1.08276 0.00291859 0)
(1.02822 -0.0145384 0)
(1.07941 -0.0083083 0)
(1.02989 -0.0250232 0)
(1.0785 -0.0198675 0)
(1.03488 -0.0362219 0)
(1.08028 -0.0320582 0)
(1.04344 -0.0485956 0)
(1.08501 -0.0453247 0)
(1.05586 -0.0627338 0)
(1.093 -0.0601444 0)
(1.07274 -0.0792985 0)
(1.10441 -0.0774046 0)
(1.09481 -0.0989507 5.25825e-34)
(1.12019 -0.0977505 0)
(1.12294 -0.122282 7.56363e-36)
(1.14071 -0.121851 5.25825e-34)
(1.15859 -0.149791 -5.18817e-34)
(1.1677 -0.150704 -5.18817e-34)
(1.20349 -0.181798 0)
(1.20254 -0.184914 0)
(1.25975 -0.218186 0)
(1.24731 -0.224845 0)
(1.32983 -0.258107 0)
(1.30471 -0.270394 0)
(1.41651 -0.299664 0)
(1.37806 -0.320574 0)
(1.52242 -0.339328 0)
(1.47115 -0.372905 0)
(1.64985 -0.370958 0)
(1.5882 -0.423057 0)
(1.79786 -0.384795 0)
(1.73335 -0.46174 0)
(1.95628 -0.36975 0)
(1.89478 -0.470784 0)
(2.10922 -0.316953 0)
(2.05434 -0.435793 0)
(2.23812 -0.225311 0)
(2.19173 -0.348641 0)
(2.33059 -0.105367 0)
(2.2972 -0.216589 0)
(2.37393 0.0298353 0)
(2.35691 -0.0572124 0)
(2.36461 0.164817 0)
(2.35738 0.107201 0)
(2.31621 0.282117 0)
(2.32713 0.252919 0)
(2.23412 0.370363 0)
(2.26957 0.369748 0)
(2.1212 0.422504 0)
(2.18422 0.453056 0)
(1.98617 0.437151 0)
(2.0719 0.496241 0)
(1.83984 0.419482 0)
(1.94192 0.499595 0)
(1.6921 0.37837 0)
(1.80508 0.470227 0)
(1.55105 0.323925 0)
(1.66888 0.419549 0)
(1.42486 0.265388 0)
(1.5409 0.356314 0)
(1.31811 0.209622 0)
(1.42794 0.289954 0)
(1.23165 0.160611 0)
(1.33337 0.227734 0)
(1.16409 0.119934 0)
(1.25725 0.173585 0)
(1.11272 0.0875597 0)
(1.1978 0.129056 0)
(1.07451 0.0626107 0)
(1.1525 0.0938955 0)
(1.0466 0.043885 0)
(1.11871 0.0669753 0)
(1.02655 0.0301663 0)
(1.09397 0.0468813 0)
(1.01231 0.0203282 0)
(1.07614 0.0322591 0)
(1.00231 0.0133869 0)
(1.06341 0.021807 0)
(0.995385 0.00857924 0)
(1.05443 0.0144204 0)
(0.990626 0.00532173 0)
(1.04819 0.00933149 0)
(0.987378 0.00315092 0)
(1.04386 0.0058842 0)
(0.985186 0.00172973 0)
(1.04087 0.00356975 0)
(0.983721 0.000823619 0)
(1.03883 0.00204739 0)
(0.982754 0.000264596 0)
(1.03745 0.00106683 0)
(0.982128 -6.56529e-05 0)
(1.03651 0.000449905 0)
(0.981733 -0.000247291 0)
(1.03589 7.53336e-05 0)
(0.981494 -0.00033312 0)
(1.03549 -0.000139272 0)
(0.981353 -0.00035813 0)
(1.03523 -0.000249786 0)
(0.981278 -0.00034824 0)
(1.03507 -0.000292961 0)
(0.981244 -0.000319174 0)
(1.03497 -0.000298178 0)
(0.981234 -0.000278652 0)
(1.03491 -0.000278526 0)
(0.981238 -0.000233951 0)
(1.03488 -0.000245442 0)
(0.981248 -0.000188956 0)
(1.03487 -0.00020673 0)
(0.98126 -0.000144767 0)
(1.03487 -0.0001651 0)
(0.981271 -0.000102241 0)
(1.03487 -0.000122734 0)
(0.981277 -5.82348e-05 0)
(1.03487 -8.09369e-05 0)
(1.03486 -3.28624e-05 0)
(1.01043 0.0442616 0)
(1.00232 0.0190099 0)
(1.03613 0.0804134 0)
(1.01544 0.0551014 0)
(1.06745 0.105245 0)
(1.04076 0.0826888 0)
(1.09771 0.119428 0)
(1.07006 0.100664 0)
(1.12332 0.124779 0)
(1.0972 0.110562 0)
(1.14277 0.123776 0)
(1.12062 0.113975 0)
(1.15619 0.118272 0)
(1.13939 0.112741 0)
(1.16462 0.109023 0)
(1.15347 0.107608 0)
(1.16882 0.0979014 0)
(1.16413 0.099418 0)
(1.16905 0.0868816 0)
(1.16982 0.0901595 0)
(1.16626 0.0756967 0)
(1.17261 0.0802602 0)
(1.16153 0.063708 0)
(1.17298 0.0691581 0)
(1.15571 0.0510013 0)
(1.17154 0.057287 0)
(1.14925 0.037828 0)
(1.16835 0.0451566 0)
(1.14275 0.0246947 0)
(1.16441 0.0327742 0)
(1.13694 0.0118976 0)
(1.16022 0.0201675 0)
(1.13242 -0.000648091 0)
(1.15628 0.00743793 0)
(1.12961 -0.0133066 0)
(1.15309 -0.00549707 0)
(1.12878 -0.0265225 0)
(1.15102 -0.019039 0)
(1.13025 -0.0407247 0)
(1.15041 -0.033528 0)
(1.13439 -0.0564171 0)
(1.15158 -0.0494675 0)
(1.14134 -0.074392 0)
(1.15493 -0.0670963 0)
(1.15146 -0.0953913 0)
(1.16042 -0.0875263 0)
(1.16561 -0.120057 0)
(1.16897 -0.111896 0)
(1.18489 -0.149659 0)
(1.18131 -0.141125 0)
(1.21079 -0.185325 0)
(1.19893 -0.176612 0)
(1.24524 -0.227651 0)
(1.22325 -0.219356 0)
(1.29087 -0.277057 0)
(1.25664 -0.270481 0)
(1.35126 -0.333327 0)
(1.3025 -0.330778 0)
(1.43094 -0.394835 0)
(1.36554 -0.400259 0)
(1.53529 -0.458117 0)
(1.45165 -0.477253 0)
(1.67079 -0.515084 0)
(1.56959 -0.558557 0)
(1.83276 -0.549731 0)
(1.72242 -0.623714 0)
(1.99733 -0.543589 0)
(1.8707 -0.63536 0)
(2.14447 -0.480636 0)
(2.00323 -0.582933 0)
(2.25828 -0.352213 0)
(2.08618 -0.462445 0)
(2.32382 -0.176246 0)
(2.10554 -0.282134 0)
(2.33947 0.0125837 0)
(2.08375 -0.072859 0)
(2.3216 0.188777 0)
(2.0678 0.125075 0)
(2.27679 0.333376 0)
(2.06593 0.297728 0)
(2.21432 0.442471 0)
(2.05753 0.432221 0)
(2.13179 0.518267 0)
(2.02958 0.535579 0)
(2.02585 0.553392 0)
(1.97263 0.602181 0)
(1.90619 0.546922 0)
(1.89123 0.619259 0)
(1.78241 0.509266 0)
(1.79544 0.594002 0)
(1.65907 0.45116 0)
(1.69399 0.542889 0)
(1.54436 0.381283 0)
(1.59128 0.471028 0)
(1.44362 0.308966 0)
(1.49465 0.39069 0)
(1.35927 0.241571 0)
(1.41017 0.312084 0)
(1.29111 0.183426 0)
(1.34008 0.241745 0)
(1.23763 0.135952 0)
(1.28391 0.182541 0)
(1.1967 0.0986951 0)
(1.2401 0.134825 0)
(1.16605 0.0703191 0)
(1.20668 0.097623 0)
(1.14355 0.0492489 0)
(1.18166 0.0693787 0)
(1.12722 0.0339433 0)
(1.16319 0.0485967 0)
(1.1155 0.0229938 0)
(1.14981 0.0335209 0)
(1.10724 0.0152921 0)
(1.14017 0.022682 0)
(1.10143 0.00998918 0)
(1.13337 0.0151385 0)
(1.09736 0.00637698 0)
(1.12856 0.00995869 0)
(1.09453 0.0039448 0)
(1.12517 0.0063992 0)
(1.09257 0.00233522 0)
(1.12279 0.0040088 0)
(1.09122 0.00128576 0)
(1.12113 0.00242079 0)
(1.09029 0.000615574 0)
(1.11996 0.00137729 0)
(1.08966 0.000201185 0)
(1.11916 0.000705754 0)
(1.08923 -4.28131e-05 0)
(1.11861 0.000285703 0)
(1.08895 -0.000175047 0)
(1.11823 3.34676e-05 0)
(1.08876 -0.000236032 0)
(1.11797 -0.000107806 0)
(1.08864 -0.000252581 0)
(1.11779 -0.000178008 0)
(1.08857 -0.000241916 0)
(1.11768 -0.000202261 0)
(1.08852 -0.000215751 0)
(1.1176 -0.000198339 0)
(1.08849 -0.000181118 0)
(1.11755 -0.000177801 0)
(1.08847 -0.000141965 0)
(1.11752 -0.000147566 0)
(1.08846 -0.000100842 0)
(1.11749 -0.000111638 0)
(1.08846 -5.54072e-05 0)
(1.11748 -7.27474e-05 0)
(1.11746 -2.47991e-05 0)
(1.00595 0.0306963 0)
(1.00138 0.013062 0)
(1.02223 0.0575642 0)
(1.00944 0.0388213 0)
(1.04474 0.0779722 0)
(1.02633 0.0601813 0)
(1.06972 0.091696 0)
(1.0481 0.0756809 0)
(1.09451 0.0996262 0)
(1.07109 0.0857709 0)
(1.1172 0.102761 0)
(1.09346 0.0912814 0)
(1.13688 0.101904 0)
(1.1142 0.0930604 0)
(1.15289 0.0977331 0)
(1.13253 0.0916025 0)
(1.16491 0.0912992 0)
(1.14797 0.0873977 0)
(1.17351 0.0834146 0)
(1.16007 0.0815617 0)
(1.17934 0.0739401 0)
(1.16947 0.0744322 0)
(1.18282 0.0630674 0)
(1.17649 0.0656695 0)
(1.18411 0.0517786 0)
(1.18119 0.0560044 0)
(1.18355 0.0403832 0)
(1.18364 0.0457125 0)
(1.18185 0.0285065 0)
(1.18436 0.0344766 0)
(1.17948 0.016024 0)
(1.1838 0.0225414 0)
(1.17685 0.00295795 0)
(1.18242 0.0100614 0)
(1.17443 -0.0108278 0)
(1.18063 -0.00307252 0)
(1.17257 -0.0256173 0)
(1.17863 -0.017185 0)
(1.17163 -0.0418102 0)
(1.17679 -0.0325839 0)
(1.17196 -0.0596099 0)
(1.17536 -0.0497954 0)
(1.17382 -0.0795615 0)
(1.17475 -0.0689572 0)
(1.17755 -0.103301 0)
(1.1751 -0.0912621 0)
(1.18418 -0.132293 0)
(1.17719 -0.118524 0)
(1.19476 -0.167465 0)
(1.1816 -0.151705 0)
(1.21043 -0.210104 0)
(1.18929 -0.192283 0)
(1.23329 -0.261818 0)
(1.20182 -0.242213 0)
(1.26643 -0.324153 0)
(1.22164 -0.303624 0)
(1.31436 -0.398214 0)
(1.25251 -0.378704 0)
(1.38342 -0.484007 0)
(1.30018 -0.469323 0)
(1.48224 -0.580077 0)
(1.37222 -0.576065 0)
(1.62078 -0.672464 0)
(1.48116 -0.697097 0)
(1.76548 -0.72198 0)
(1.61116 -0.768413 0)
(1.88013 -0.700385 0)
(1.67796 -0.750018 0)
(1.9556 -0.609408 0)
(1.64472 -0.658396 5.82032e-18)
(1.94899 -0.441775 0)
(1.51273 -0.455841 0)
(1.86365 -0.212854 0)
(1.31694 -0.196787 0)
(1.80762 0.0155152 0)
(1.17011 -0.0168268 -6.85083e-18)
(1.81452 0.216317 0)
(1.19522 0.118165 -5.25455e-18)
(1.83982 0.388444 0)
(1.29109 0.272436 0)
(1.86725 0.521115 0)
(1.3769 0.404783 -2.5529e-19)
(1.86656 0.613295 0)
(1.51186 0.536273 0)
(1.83413 0.661617 0)
(1.59078 0.634611 0)
(1.77898 0.662897 0)
(1.61584 0.674414 0)
(1.70854 0.625773 0)
(1.60136 0.664438 0)
(1.62661 0.561568 0)
(1.56402 0.62482 0)
(1.54209 0.480279 0)
(1.51252 0.555549 0)
(1.46203 0.394257 0)
(1.45302 0.470745 0)
(1.39168 0.312846 0)
(1.39464 0.382438 0)
(1.33333 0.241516 0)
(1.34287 0.300097 0)
(1.28662 0.182038 0)
(1.29977 0.229254 0)
(1.25018 0.134305 0)
(1.26513 0.171264 0)
(1.22231 0.097141 0)
(1.23803 0.125492 0)
(1.20132 0.0690774 0)
(1.21728 0.0903659 0)
(1.18576 0.0484419 0)
(1.20166 0.0641568 0)
(1.17443 0.0334373 0)
(1.19019 0.0448473 0)
(1.16632 0.022713 0)
(1.18177 0.0307939 0)
(1.16051 0.015224 0)
(1.17569 0.0209539 0)
(1.15635 0.0100488 0)
(1.17145 0.0141143 0)
(1.15343 0.00651606 0)
(1.16837 0.00932077 0)
(1.15135 0.00414114 0)
(1.16618 0.00608754 0)
(1.14988 0.0025515 0)
(1.1646 0.00389338 0)
(1.14884 0.00149883 0)
(1.16347 0.00241401 0)
(1.14811 0.000814296 0)
(1.16267 0.00143319 0)
(1.1476 0.000379898 0)
(1.16209 0.000795328 0)
(1.14725 0.000113835 0)
(1.16169 0.000389314 0)
(1.147 -4.01531e-05 0)
(1.1614 0.000139339 0)
(1.14683 -0.000120654 0)
(1.1612 -6.6417e-06 0)
(1.14671 -0.000153701 0)
(1.16106 -8.41044e-05 0)
(1.14663 -0.00015693 0)
(1.16095 -0.000117125 0)
(1.14657 -0.000141923 0)
(1.16088 -0.000121963 0)
(1.14654 -0.000115676 0)
(1.16083 -0.000108973 0)
(1.14651 -8.25247e-05 0)
(1.1608 -8.48116e-05 0)
(1.14649 -4.16213e-05 0)
(1.16077 -5.32827e-05 0)
(1.16075 -1.06937e-05 0)
(1.00374 0.0218696 0)
(1.00091 0.00932611 0)
(1.0146 0.0417667 0)
(1.0063 0.0279523 0)
(1.03068 0.0578474 0)
(1.01809 0.04411 0)
(1.04977 0.0695747 0)
(1.03416 0.0565918 0)
(1.07014 0.0772455 0)
(1.05227 0.0653941 0)
(1.09051 0.0814189 0)
(1.07109 0.0709177 0)
(1.10995 0.082603 0)
(1.08978 0.0736162 0)
(1.12768 0.0812115 0)
(1.10765 0.0738724 0)
(1.14304 0.0777504 0)
(1.12401 0.0720366 0)
(1.15601 0.0726668 0)
(1.13843 0.0685979 0)
(1.16667 0.0661272 0)
(1.15087 0.063769 0)
(1.17483 0.0584094 0)
(1.1613 0.0575059 0)
(1.18065 0.0497129 0)
(1.16936 0.0501882 0)
(1.18443 0.039834 0)
(1.17557 0.0419274 0)
(1.1863 0.0287837 0)
(1.17965 0.0326056 0)
(1.18672 0.0168851 0)
(1.18197 0.0221213 0)
(1.18613 0.00430698 0)
(1.18277 0.0106579 0)
(1.18477 -0.00914228 0)
(1.18233 -0.0017119 0)
(1.18281 -0.023832 0)
(1.18075 -0.0152245 0)
(1.18048 -0.0402155 0)
(1.17828 -0.0302549 0)
(1.17799 -0.0587121 0)
(1.17503 -0.047311 0)
(1.17583 -0.0801307 0)
(1.17125 -0.0667973 0)
(1.17448 -0.105889 0)
(1.16715 -0.0899125 0)
(1.17417 -0.137248 0)
(1.16319 -0.118212 0)
(1.17549 -0.175703 0)
(1.15934 -0.153018 8.86296e-33)
(1.17964 -0.223449 0)
(1.15634 -0.196441 -8.79134e-33)
(1.18858 -0.283037 0)
(1.15542 -0.251153 0)
(1.20538 -0.357335 0)
(1.15857 -0.320417 0)
(1.23483 -0.449498 0)
(1.16903 -0.408157 0)
(1.28445 -0.562506 0)
(1.19243 -0.518945 0)
(1.36527 -0.697225 0)
(1.23604 -0.656884 0)
(1.47608 -0.803129 0)
(1.30583 -0.807905 0)
(1.53481 -0.810468 0)
(1.33485 -0.827142 0)
(1.44691 -0.68926 5.82032e-18)
(1.20378 -0.662118 0)
(1.19985 -0.447243 5.82032e-18)
(0.903385 -0.325771 1.2862e-17)
(0.92476 -0.177484 0)
(0.528434 0.152094 0)
(0.627817 -0.0262977 -6.85083e-18)
(0.364145 -0.050814 0)
(0.562308 0.0223801 -1.21054e-17)
(0.257477 -0.1512 -6.85083e-18)
(0.689889 0.0764285 -5.25455e-18)
(0.29634 -0.197903 -5.25455e-18)
(0.80956 0.18632 -2.5529e-19)
(0.377701 -0.259041 0)
(1.00736 0.36386 -2.5529e-19)
(0.597091 0.132754 -1.10117e-18)
(1.22967 0.535633 0)
(0.805314 0.313961 -4.70113e-17)
(1.36851 0.636331 0)
(1.01482 0.495771 0)
(1.43617 0.6691 0)
(1.17371 0.606752 0)
(1.45829 0.659736 0)
(1.2604 0.64232 0)
(1.45114 0.616728 0)
(1.30405 0.631969 0)
(1.42407 0.544384 0)
(1.32152 0.582625 0)
(1.38671 0.457897 0)
(1.318 0.508105 0)
(1.34679 0.36931 0)
(1.3023 0.422355 0)
(1.31007 0.287942 0)
(1.28206 0.336822 0)
(1.27875 0.218837 0)
(1.26204 0.260569 0)
(1.25323 0.162852 0)
(1.24425 0.196785 0)
(1.23313 0.119056 0)
(1.22937 0.145596 0)
(1.21767 0.0857296 0)
(1.21743 0.10582 0)
(1.20606 0.0608245 0)
(1.20809 0.075765 0)
(1.19748 0.0424099 0)
(1.20107 0.0534298 0)
(1.19116 0.0291719 0)
(1.19578 0.0371099 0)
(1.18661 0.0199626 0)
(1.19182 0.0255089 0)
(1.18343 0.0135074 0)
(1.18904 0.0172926 0)
(1.18114 0.00897968 0)
(1.18699 0.0116104 0)
(1.17943 0.00587884 0)
(1.18558 0.0077976 0)
(1.17819 0.00377344 0)
(1.1845 0.00513395 0)
(1.17729 0.00236375 0)
(1.1837 0.00331211 0)
(1.17665 0.00143066 0)
(1.1831 0.00208019 0)
(1.17618 0.000820135 0)
(1.18266 0.00126249 0)
(1.17584 0.00042773 0)
(1.18233 0.000725934 0)
(1.1756 0.000183082 0)
(1.18209 0.000381699 0)
(1.17543 3.77478e-05 0)
(1.18191 0.000168283 0)
(1.1753 -4.16367e-05 0)
(1.18178 4.22119e-05 0)
(1.17521 -7.78412e-05 0)
(1.18168 -2.6077e-05 0)
(1.17514 -8.60167e-05 0)
(1.18161 -5.65052e-05 0)
(1.1751 -7.61098e-05 0)
(1.18156 -6.18707e-05 0)
(1.17506 -5.43397e-05 0)
(1.18152 -5.1236e-05 0)
(1.17504 -2.17456e-05 0)
(1.18149 -2.92065e-05 0)
(1.18147 4.94317e-06 0)
(1.0026 0.0158124 0)
(1.00066 0.00672844 0)
(1.01035 0.0305223 0)
(1.00457 0.0201993 0)
(1.02224 0.0428704 0)
(1.01331 0.0322207 0)
(1.03695 0.0523114 0)
(1.02558 0.0418834 0)
(1.05333 0.0589137 0)
(1.03997 0.0490122 0)
(1.07045 0.0629563 0)
(1.05551 0.0537961 0)
(1.08757 0.0647471 0)
(1.07153 0.0565027 0)
(1.10405 0.0645856 0)
(1.08747 0.0573916 0)
(1.11938 0.0627912 0)
(1.10277 0.0567007 0)
(1.13329 0.0596183 0)
(1.11705 0.0546929 0)
(1.14554 0.0551459 0)
(1.13003 0.0515129 0)
(1.15587 0.0494664 0)
(1.14152 0.0471824 0)
(1.16423 0.0426819 0)
(1.15123 0.041823 0)
(1.17074 0.0348575 0)
(1.15921 0.0354159 0)
(1.17536 0.0259655 0)
(1.16536 0.0279948 0)
(1.17803 0.0159278 0)
(1.16964 0.0194427 0)
(1.17893 0.00475256 0)
(1.17199 0.00975859 0)
(1.17829 -0.00761682 0)
(1.17248 -0.00106372 0)
(1.17623 -0.0214041 0)
(1.17119 -0.0131691 0)
(1.17284 -0.0370212 0)
(1.16818 -0.0268681 0)
(1.16817 -0.0550065 0)
(1.16341 -0.042635 0)
(1.16244 -0.0761512 0)
(1.15686 -0.0610745 0)
(1.15573 -0.101716 0)
(1.14854 -0.083203 0)
(1.148 -0.133304 8.86296e-33)
(1.13833 -0.110475 0)
(1.13958 -0.172887 8.01849e-35)
(1.12607 -0.144602 8.86296e-33)
(1.1311 -0.22307 -8.79134e-33)
(1.11183 -0.18796 -8.79134e-33)
(1.12371 -0.287255 0)
(1.09595 -0.243759 0)
(1.11952 -0.369781 0)
(1.07929 -0.316226 0)
(1.12215 -0.476097 0)
(1.06332 -0.410787 0)
(1.13746 -0.611827 0)
(1.0522 -0.534255 0)
(1.17103 -0.766639 0)
(1.04722 -0.690453 0)
(1.17357 -0.833036 0)
(1.02988 -0.810446 0)
(1.01466 -0.659974 0)
(0.864869 -0.668237 0)
(0.719867 -0.312586 7.04163e-18)
(0.439115 0.351363 0)
(0.539073 -0.0628553 7.04163e-18)
(0.224653 0.109292 7.04163e-18)
(0.319213 0 0)
(0 -0.0601605 0)
(0.140026 0 0)
(0 -0.00971274 0)
(0.115682 0 0)
(0 0.00228173 0)
(0.147379 0 0)
(0 0.0122054 0)
(0.349393 0.0213383 -8.45881e-19)
(0 0.0107139 0)
(0.399083 0.100854 -4.78571e-17)
(0.151989 -0.133422 -8.45881e-19)
(0.557537 0.26807 -4.70113e-17)
(0.333983 0.0774383 -6.76871e-17)
(0.817397 0.459363 0)
(0.513054 0.235911 -5.44257e-17)
(0.995742 0.575354 0)
(0.7236 0.428407 0)
(1.10605 0.611725 0)
(0.881007 0.532015 0)
(1.17629 0.596699 0)
(0.990468 0.56173 0)
(1.21642 0.546183 0)
(1.07004 0.542486 0)
(1.23472 0.472866 0)
(1.12376 0.489808 0)
(1.23875 0.390273 0)
(1.15718 0.418326 0)
(1.23507 0.309699 0)
(1.17654 0.340507 0)
(1.22824 0.238654 0)
(1.18701 0.267397 0)
(1.22078 0.179634 0)
(1.19232 0.204239 0)
(1.21386 0.13252 0)
(1.1947 0.152519 0)
(1.20791 0.0960575 0)
(1.19546 0.111774 0)
(1.2031 0.0685278 0)
(1.19532 0.0805757 0)
(1.19936 0.0482279 0)
(1.19489 0.0571689 0)
(1.19643 0.0335406 0)
(1.19429 0.0400323 0)
(1.1942 0.0229478 0)
(1.19366 0.0277462 0)
(1.19258 0.0154809 0)
(1.19312 0.0189097 0)
(1.19144 0.0104918 0)
(1.19258 0.0127457 0)
(1.19062 0.00712389 0)
(1.19226 0.00861993 0)
(1.19 0.00473655 0)
(1.19198 0.00575938 0)
(1.1895 0.0030676 0)
(1.19173 0.00381357 0)
(1.1891 0.00193185 0)
(1.19152 0.00247184 0)
(1.1888 0.00117914 0)
(1.19133 0.00156506 0)
(1.18857 0.000688271 0)
(1.19117 0.000957431 0)
(1.18839 0.000374492 0)
(1.19104 0.000558052 0)
(1.18826 0.000179303 0)
(1.19093 0.000302919 0)
(1.18816 6.31019e-05 0)
(1.19085 0.000144787 0)
(1.18808 -5.99517e-07 0)
(1.19078 5.16317e-05 0)
(1.18802 -2.92925e-05 0)
(1.19072 1.89386e-06 0)
(1.18798 -3.48574e-05 0)
(1.19068 -1.84101e-05 0)
(1.18795 -2.47424e-05 0)
(1.19065 -1.97112e-05 0)
(1.18792 -1.81295e-06 0)
(1.19062 -6.91851e-06 0)
(1.19061 1.78115e-05 0)
(1.00196 0.011361 0)
(1.00052 0.00476716 0)
(1.00785 0.0220637 0)
(1.00356 0.01431 0)
(1.0171 0.03128 0)
(1.01042 0.0229763 0)
(1.02884 0.0385523 0)
(1.02026 0.0301362 0)
(1.04227 0.0438294 0)
(1.03209 0.035584 0)
(1.05669 0.0472581 0)
(1.04519 0.0393787 0)
(1.07152 0.0490466 0)
(1.05901 0.041672 0)
(1.08626 0.0494007 0)
(1.0731 0.0426553 0)
(1.10046 0.0485104 0)
(1.08701 0.0424969 0)
(1.11381 0.0465224 0)
(1.10036 0.0413402 0)
(1.12605 0.0435002 0)
(1.11288 0.0392793 0)
(1.1369 0.0394801 0)
(1.12433 0.0363315 0)
(1.14621 0.0344882 0)
(1.13445 0.0325113 0)
(1.15384 0.0285162 0)
(1.14308 0.0277852 0)
(1.15969 0.0214979 0)
(1.15004 0.0221414 0)
(1.16363 0.0133513 0)
(1.1552 0.0155075 0)
(1.16554 0.00405456 0)
(1.15838 0.00784321 0)
(1.16541 -0.00646775 0)
(1.15942 -0.000928352 0)
(1.16318 -0.018442 0)
(1.1582 -0.0109433 0)
(1.15878 -0.0322401 0)
(1.15458 -0.0224708 0)
(1.15208 -0.0483945 0)
(1.14836 -0.0359336 0)
(1.14294 -0.0677054 0)
(1.13928 -0.0519303 0)
(1.1311 -0.0913624 0)
(1.12698 -0.0713663 0)
(1.11619 -0.120959 0)
(1.11097 -0.0955615 0)
(1.09786 -0.158619 0)
(1.09057 -0.126274 1.17919e-33)
(1.07583 -0.207264 0)
(1.06502 -0.165923 -1.17798e-33)
(1.04995 -0.270878 0)
(1.03345 -0.217878 0)
(1.02046 -0.354748 0)
(0.995033 -0.286737 0)
(0.988237 -0.465477 0)
(0.948512 -0.378567 0)
(0.953843 -0.607248 0)
(0.896199 -0.499861 0)
(0.904602 -0.726157 0)
(0.823625 -0.641211 0)
(0.742625 -0.627664 0)
(0.698755 -0.64847 -6.51184e-17)
(1.62454 -0.244527 0)
(0.431434 -0.346522 -1.91978e-17)
(0.424049 0 0)
(0 -0.23619 0)
(0.0476852 0 0)
(0 -0.019154 0)
(0.000438048 0 0)
(0 1.21161e-05 0)
(0.00118437 0 0)
(0 6.49146e-06 0)
(0.00347934 0 0)
(0 7.45347e-05 0)