/*--------------------------------*- C++ -*----------------------------------*\
| =========                 |                                                 |
| \\      /  F ield         | OpenFOAM: The Open Source CFD Toolbox           |
|  \\    /   O peration     | Version:  2206                                  |
|   \\  /    A nd           | Website:  www.openfoam.com                      |
|    \\/     M anipulation  |                                                 |
\*---------------------------------------------------------------------------*/
FoamFile
{
    version     2.0;
    format      ascii;
    arch        "LSB;label=32;scalar=64";
    class       volScalarField;
    location    "0.4";
    object      epsilon;
}
// * * * * * * * * * * * * * * * * * * * * * * * * * * * * * * * * * * * * * //

dimensions      [0 2 -3 0 0 0 0];

internalField   nonuniform List<scalar> 
1875
(
0.000334122
0.000747145
0.00156314
0.00228534
0.00260484
0.0025972
0.00241378
0.00218096
0.00196953
0.00180426
0.00168524
0.00160403
0.00155079
0.00151684
0.00149592
0.00148394
0.00147828
0.00147721
0.00147973
0.00148541
0.00149426
0.00150675
0.00152378
0.00154683
0.00157806
0.0016205
0.00167813
0.0017558
0.00185871
0.00199132
0.00215534
0.00234673
0.00255215
0.00274889
0.00290677
0.00298415
0.00296686
0.00286474
0.00270157
0.00250728
0.00230972
0.0021289
0.00197494
0.00185003
0.00175198
0.00167659
0.00161929
0.00157594
0.00154317
0.00151835
0.00149952
0.00148522
0.00147432
0.001466
0.00145965
0.0014548
0.00145108
0.00144825
0.00144608
0.00144443
0.00144317
0.0014422
0.00144147
0.00144092
0.00144049
0.00144017
0.00143993
0.00143974
0.00143961
0.00143951
0.00143943
0.0014394
0.00143941
0.00143951
0.00143967
0.000235214
0.000342812
0.000562821
0.000829722
0.00106264
0.0011967
0.00124114
0.00122315
0.00117231
0.00111192
0.00105544
0.00100868
0.000972721
0.000946203
0.000926989
0.000912584
0.000901787
0.000893522
0.000886917
0.000881335
0.000876346
0.000871725
0.000867464
0.000863782
0.000861165
0.000860476
0.000863015
0.000870545
0.000885216
0.00090934
0.000944928
0.000992806
0.0010517
0.0011176
0.00118359
0.00124056
0.00127694
0.00128779
0.00127282
0.00123659
0.00118712
0.00113314
0.00108174
0.00103702
0.00100052
0.000972024
0.000950404
0.000934254
0.000922247
0.000913304
0.000906615
0.000901583
0.000897769
0.000894859
0.000892625
0.000890904
0.000889573
0.000888543
0.000887746
0.000887129
0.000886651
0.00088628
0.000885993
0.000885771
0.000885599
0.000885467
0.000885365
0.000885287
0.000885227
0.000885182
0.00088515
0.000885134
0.000885148
0.000885236
0.000885471
0.000201117
0.000225062
0.000282071
0.000362173
0.00044497
0.000510104
0.000550529
0.00056642
0.000563244
0.000548651
0.000528968
0.000508653
0.000490279
0.000474869
0.000462666
0.000453212
0.00044547
0.000438961
0.000433254
0.000427967
0.000422789
0.000417501
0.000411984
0.000406212
0.000400233
0.000394264
0.000388711
0.000384218
0.000381687
0.000382239
0.000387061
0.000396991
0.000412237
0.000432362
0.000456335
0.000483468
0.000511676
0.000535507
0.000550624
0.000554921
0.000549133
0.000536109
0.000519562
0.000502696
0.00048755
0.00047504
0.00046528
0.000457941
0.00045253
0.000448567
0.000445667
0.000443537
0.000441956
0.000440769
0.00043987
0.000439182
0.00043865
0.000438239
0.00043792
0.000437672
0.000437478
0.000437327
0.00043721
0.000437118
0.000437046
0.00043699
0.000436946
0.000436913
0.000436887
0.000436867
0.000436852
0.000436844
0.000436853
0.00043692
0.000437217
0.000190118
0.000187402
0.000196142
0.000214659
0.000238041
0.000259548
0.000274695
0.000281854
0.000281844
0.000276717
0.000268592
0.000259125
0.000249773
0.000241349
0.00023423
0.000228648
0.000224224
0.00022058
0.000217451
0.000214621
0.000211911
0.00020919
0.000206375
0.000203426
0.000200318
0.000197088
0.000193835
0.000190791
0.00018836
0.000187091
0.000187518
0.000189877
0.000194178
0.000200499
0.000208567
0.000218862
0.000232802
0.000248313
0.000262122
0.000271398
0.000274768
0.000272545
0.000266384
0.000258373
0.000250207
0.000242913
0.000236919
0.000232255
0.000228751
0.000226165
0.000224266
0.000222874
0.000221848
0.000221084
0.000220512
0.00022008
0.00021975
0.000219497
0.000219303
0.000219154
0.000219039
0.00021895
0.000218881
0.000218827
0.000218786
0.000218754
0.000218729
0.000218709
0.000218694
0.000218683
0.000218674
0.000218669
0.000218672
0.000218709
0.000218908
0.000186819
0.000175367
0.000169069
0.00016743
0.000168974
0.000171628
0.000173571
0.000173678
0.000171675
0.000167875
0.00016291
0.000157483
0.000152212
0.000147476
0.000143448
0.000140174
0.000137704
0.000135782
0.000134235
0.000132932
0.000131758
0.000130635
0.00012952
0.000128368
0.000127177
0.00012581
0.000124267
0.000122642
0.000121134
0.000119956
0.000118989
0.000118058
0.00011673
0.000117313
0.000119885
0.00012441
0.000130574
0.000138643
0.000148127
0.000156777
0.000162441
0.000164225
0.000162576
0.000158753
0.000154113
0.000149622
0.000145775
0.000142709
0.000140379
0.000138696
0.000137475
0.000136583
0.00013593
0.000135448
0.000135091
0.000134823
0.000134621
0.000134467
0.000134351
0.000134262
0.000134194
0.000134141
0.000134101
0.00013407
0.000134047
0.000134028
0.000134014
0.000134003
0.000133995
0.000133989
0.000133984
0.000133981
0.000133981
0.000133995
0.000134083
0.000185815
0.000171673
0.000160562
0.000152278
0.000146271
0.000141786
0.000138087
0.000134593
0.000131006
0.000127248
0.000123483
0.000119883
0.000116594
0.000113725
0.000111325
0.000109392
0.000107928
0.000106854
0.000106064
0.000105474
0.000105008
0.000104604
0.000104205
0.000103725
0.000103059
0.00010209
0.000100749
9.90546e-05
9.70283e-05
9.43503e-05
8.98871e-05
8.51932e-05
7.58433e-05
7.63311e-05
8.51851e-05
9.58313e-05
9.89629e-05
9.79207e-05
9.98714e-05
0.000106181
0.000112999
0.00011747
0.000119178
0.000118539
0.000116568
0.000114209
0.00011203
0.000110257
0.000108912
0.000107931
0.000107223
0.000106709
0.000106341
0.000106075
0.000105883
0.000105743
0.00010564
0.000105561
0.000105502
0.000105457
0.000105422
0.000105396
0.000105376
0.000105361
0.000105349
0.00010534
0.000105334
0.000105328
0.000105324
0.000105321
0.000105319
0.000105317
0.000105317
0.000105319
0.000105339
0.000185477
0.000170489
0.000157849
0.000147375
0.000138791
0.000131756
0.000125918
0.000120965
0.000116672
0.0001129
0.000109589
0.000106723
0.000104299
0.000102295
0.000100695
9.9457e-05
9.8532e-05
9.78755e-05
9.7424e-05
9.71184e-05
9.68994e-05
9.6712e-05
9.64741e-05
9.60276e-05
9.52035e-05
9.38367e-05
9.18356e-05
8.91751e-05
8.55666e-05
7.96577e-05
6.91945e-05
6.48987e-05
3.17578e-05
5.02171e-05
7.90123e-05
0.00010013
7.89447e-05
4.97476e-05
3.64411e-05
7.62529e-05
8.9115e-05
9.4418e-05
9.84568e-05
0.000100491
0.000100867
0.000100342
9.95465e-05
9.88027e-05
9.82158e-05
9.77851e-05
9.74759e-05
9.7253e-05
9.70906e-05
9.69703e-05
9.68795e-05
9.68095e-05
9.67563e-05
9.67162e-05
9.66861e-05
9.66637e-05
9.66471e-05
9.66347e-05
9.66255e-05
9.66186e-05
9.66134e-05
9.66094e-05
9.66064e-05
9.66041e-05
9.66023e-05
9.6601e-05
9.66e-05
9.65991e-05
9.65981e-05
9.65955e-05
9.65836e-05
0.000185344
0.000170064
0.00015691
0.000145696
0.000136225
0.000128289
0.000121672
0.000116171
0.000111606
0.000107829
0.000104719
0.000102185
0.000100149
9.85456e-05
9.73102e-05
9.63835e-05
9.57106e-05
9.52468e-05
9.49434e-05
9.47507e-05
9.46099e-05
9.44352e-05
9.40921e-05
9.33874e-05
9.20959e-05
9.00341e-05
8.71505e-05
8.33935e-05
7.79058e-05
6.78391e-05
4.98043e-05
4.96403e-05
0.00014684
0.0002
0.0002
0.0002
0.0002
0.0002
0.000157414
5.2215e-05
7.17375e-05
7.95781e-05
8.54808e-05
9.01378e-05
9.27138e-05
9.38616e-05
9.42703e-05
9.43845e-05
9.44057e-05
9.44026e-05
9.43915e-05
9.43744e-05
9.43523e-05
9.43263e-05
9.43014e-05
9.42772e-05
9.42555e-05
9.4237e-05
9.42218e-05
9.42097e-05
9.42003e-05
9.41932e-05
9.41879e-05
9.4184e-05
9.41811e-05
9.4179e-05
9.41774e-05
9.41762e-05
9.41753e-05
9.41747e-05
9.41742e-05
9.41736e-05
9.41726e-05
9.4168e-05
9.41437e-05
0.000185284
0.000169885
0.000156535
0.000145045
0.000135246
0.000126976
0.000120071
0.000114368
0.000109706
0.000105934
0.000102916
0.00010053
9.86709e-05
9.72471e-05
9.6179e-05
9.53967e-05
9.48417e-05
9.4467e-05
9.42266e-05
9.40679e-05
9.39184e-05
9.3665e-05
9.31368e-05
9.21074e-05
9.03367e-05
8.76727e-05
8.41328e-05
7.96031e-05
7.26859e-05
6.0205e-05
5.22423e-05
0.000404172
0.0002
0.0002
0.0002
0.0002
0.0002
0.0002
0.0002
0.000429397
4.94063e-05
6.33337e-05
7.4471e-05
8.26141e-05
8.74073e-05
9.00278e-05
9.14412e-05
9.22479e-05
9.27498e-05
9.30806e-05
9.32999e-05
9.34398e-05
9.35232e-05
9.35676e-05
9.35873e-05
9.35925e-05
9.359e-05
9.3584e-05
9.35772e-05
9.35708e-05
9.35653e-05
9.35608e-05
9.35574e-05
9.35547e-05
9.35528e-05
9.35513e-05
9.35502e-05
9.35494e-05
9.35488e-05
9.35484e-05
9.3548e-05
9.35476e-05
9.35465e-05
9.35413e-05
9.35128e-05
0.000185254
0.000169799
0.00015636
0.00014475
0.000134812
0.000126402
0.000119381
0.000113598
0.000108902
0.00010514
0.000102167
9.98505e-05
9.80733e-05
9.67333e-05
9.57432e-05
9.50291e-05
9.45299e-05
9.41962e-05
9.398e-05
9.38224e-05
9.36368e-05
9.32907e-05
9.25978e-05
9.1335e-05
8.9303e-05
8.6413e-05
8.26672e-05
7.77895e-05
7.00706e-05
3.42068e-05
0.000159482
0.0002
0.0002
0.0002
0.0002
0.0002
0.0002
0.0002
0.0002
0.0002
0.000144707
3.10373e-05
6.23767e-05
7.65531e-05
8.39176e-05
8.77507e-05
8.98414e-05
9.10846e-05
9.18904e-05
9.24396e-05
9.28156e-05
9.3066e-05
9.32254e-05
9.33211e-05
9.33745e-05
9.34014e-05
9.34128e-05
9.34157e-05
9.34145e-05
9.34117e-05
9.34086e-05
9.34057e-05
9.34033e-05
9.34014e-05
9.33999e-05
9.33988e-05
9.3398e-05
9.33974e-05
9.33969e-05
9.33966e-05
9.33963e-05
9.3396e-05
9.33948e-05
9.33894e-05
9.33596e-05
0.000185237
0.000169754
0.00015627
0.000144602
0.000134596
0.000126122
0.000119046
0.000113228
0.000108518
0.000104764
0.000101814
9.95327e-05
9.77954e-05
9.64957e-05
9.5543e-05
9.48615e-05
9.43888e-05
9.40733e-05
9.38648e-05
9.36995e-05
9.34836e-05
9.30792e-05
9.23089e-05
9.09902e-05
8.90284e-05
8.65095e-05
8.34868e-05
7.87327e-05
7.20825e-05
6.41919e-05
0.0002
0.0002
0.0002
0.0002
0.0002
0.0002
0.0002
0.0002
0.0002
0.0002
0.0002
4.90136e-05
6.20786e-05
7.49489e-05
8.28917e-05
8.70485e-05
8.92848e-05
9.06213e-05
9.15104e-05
9.2138e-05
9.25833e-05
9.28905e-05
9.30934e-05
9.32207e-05
9.32962e-05
9.33381e-05
9.33593e-05
9.33687e-05
9.33716e-05
9.33715e-05
9.33701e-05
9.33684e-05
9.33667e-05
9.33653e-05
9.33642e-05
9.33633e-05
9.33627e-05
9.33622e-05
9.33619e-05
9.33616e-05
9.33614e-05
9.33611e-05
9.336e-05
9.33545e-05
9.33244e-05
0.000185229
0.000169731
0.000156226
0.000144529
0.000134491
0.000125985
0.000118884
0.00011305
0.000108335
0.000104585
0.000101648
9.93838e-05
9.76657e-05
9.6385e-05
9.54496e-05
9.47828e-05
9.43218e-05
9.40138e-05
9.38072e-05
9.36376e-05
9.34104e-05
9.2993e-05
9.22238e-05
9.09481e-05
8.91312e-05
8.70271e-05
8.50022e-05
8.08769e-05
6.0343e-05
0.000100492
0.0002
0.0002
0.0002
0.0002
0.0002
0.0002
0.0002
0.0002
0.0002
0.0002
0.0002
7.99691e-05
7.0493e-05
7.68847e-05
8.34674e-05
8.72466e-05
8.93173e-05
9.05708e-05
9.14226e-05
9.20421e-05
9.24953e-05
9.2817e-05
9.30353e-05
9.31763e-05
9.32625e-05
9.33124e-05
9.33393e-05
9.33526e-05
9.33583e-05
9.336e-05
9.33598e-05
9.33588e-05
9.33577e-05
9.33567e-05
9.33559e-05
9.33552e-05
9.33547e-05
9.33544e-05
9.33541e-05
9.33539e-05
9.33537e-05
9.33534e-05
9.33524e-05
9.33469e-05
9.33167e-05
0.000185227
0.000169724
0.000156213
0.000144506
0.00013446
0.000125944
0.000118836
0.000112998
0.000108283
0.000104537
0.000101606
9.93482e-05
9.76371e-05
9.63627e-05
9.54325e-05
9.47692e-05
9.43104e-05
9.40028e-05
9.37955e-05
9.36241e-05
9.33955e-05
9.29807e-05
9.22243e-05
9.09713e-05
8.91793e-05
8.71184e-05
8.53364e-05
8.15655e-05
6.62263e-05
0.000122237
0.0002
0.0002
0.0002
0.0002
0.0002
0.0002
0.0002
0.0002
0.0002
0.0002
0.0002
0.000102996
7.48677e-05
7.70139e-05
8.32531e-05
8.71731e-05
8.93201e-05
9.05905e-05
9.14345e-05
9.20421e-05
9.24871e-05
9.28051e-05
9.3023e-05
9.31651e-05
9.32532e-05
9.3305e-05
9.33335e-05
9.33481e-05
9.33547e-05
9.3357e-05
9.33573e-05
9.33567e-05
9.33558e-05
9.33549e-05
9.33542e-05
9.33536e-05
9.33531e-05
9.33528e-05
9.33526e-05
9.33524e-05
9.33522e-05
9.33519e-05
9.33509e-05
9.33454e-05
9.33152e-05
0.000185229
0.000169731
0.000156226
0.000144529
0.000134492
0.000125988
0.000118889
0.000113058
0.000108349
0.000104604
0.000101673
9.94136e-05
9.76988e-05
9.64196e-05
9.54838e-05
9.48148e-05
9.43503e-05
9.40376e-05
9.38265e-05
9.36527e-05
9.34224e-05
9.30042e-05
9.22371e-05
9.09653e-05
8.91562e-05
8.70769e-05
8.51236e-05
8.09662e-05
6.02972e-05
9.95498e-05
0.0002
0.0002
0.0002
0.0002
0.0002
0.0002
0.0002
0.0002
0.0002
0.0002
0.0002
7.9929e-05
7.05667e-05
7.73789e-05
8.38257e-05
8.7477e-05
8.94725e-05
9.06779e-05
9.14945e-05
9.20871e-05
9.25208e-05
9.28296e-05
9.30402e-05
9.31769e-05
9.32612e-05
9.33104e-05
9.33373e-05
9.33508e-05
9.33567e-05
9.33586e-05
9.33585e-05
9.33577e-05
9.33567e-05
9.33557e-05
9.33548e-05
9.33542e-05
9.33537e-05
9.33533e-05
9.3353e-05
9.33528e-05
9.33526e-05
9.33523e-05
9.33513e-05
9.33458e-05
9.33156e-05
0.000185237
0.000169754
0.00015627
0.000144602
0.000134598
0.000126125
0.000119053
0.000113242
0.000108541
0.000104795
0.000101855
9.95817e-05
9.785e-05
9.65531e-05
9.56001e-05
9.49152e-05
9.44367e-05
9.41136e-05
9.38969e-05
9.37239e-05
9.35024e-05
9.30981e-05
9.23372e-05
9.10394e-05
8.91111e-05
8.66367e-05
8.36666e-05
7.8883e-05
7.2306e-05
6.40906e-05
0.0002
0.0002
0.0002
0.0002
0.0002
0.0002
0.0002
0.0002
0.0002
0.0002
0.0002
4.89425e-05
6.22713e-05
7.55142e-05
8.32921e-05
8.73246e-05
8.94772e-05
9.07491e-05
9.15872e-05
9.2177e-05
9.2597e-05
9.28892e-05
9.30844e-05
9.32089e-05
9.32843e-05
9.33271e-05
9.33498e-05
9.33604e-05
9.33644e-05
9.33651e-05
9.33642e-05
9.33628e-05
9.33614e-05
9.33601e-05
9.33591e-05
9.33583e-05
9.33577e-05
9.33572e-05
9.33568e-05
9.33566e-05
9.33564e-05
9.3356e-05
9.33549e-05
9.33494e-05
9.33192e-05
0.000185254
0.000169799
0.00015636
0.00014475
0.000134812
0.000126404
0.000119385
0.000113607
0.000108916
0.000105162
0.000102199
9.9891e-05
9.81209e-05
9.67853e-05
9.57961e-05
9.50795e-05
9.45747e-05
9.42326e-05
9.40069e-05
9.38396e-05
9.36471e-05
9.33025e-05
9.26273e-05
9.14059e-05
8.94407e-05
8.6629e-05
8.29377e-05
7.81616e-05
7.07665e-05
3.4457e-05
0.000159482
0.0002
0.0002
0.0002
0.0002
0.0002
0.0002
0.0002
0.0002
0.0002
0.000144495
3.09215e-05
6.2569e-05
7.67012e-05
8.39994e-05
8.78011e-05
8.98649e-05
9.10806e-05
9.1863e-05
9.23962e-05
9.27642e-05
9.30133e-05
9.31755e-05
9.32762e-05
9.3335e-05
9.33669e-05
9.33824e-05
9.33885e-05
9.33896e-05
9.33884e-05
9.33863e-05
9.33841e-05
9.33822e-05
9.33805e-05
9.33792e-05
9.33783e-05
9.33775e-05
9.33769e-05
9.33765e-05
9.33762e-05
9.33759e-05
9.33756e-05
9.33744e-05
9.33689e-05
9.33387e-05
0.000185284
0.000169886
0.000156535
0.000145043
0.000135241
0.000126964
0.000120049
0.000114334
0.000109661
0.000105883
0.000102865
0.000100483
9.86305e-05
9.72147e-05
9.61533e-05
9.53751e-05
9.48208e-05
9.44429e-05
9.41966e-05
9.40305e-05
9.38752e-05
9.36242e-05
9.31169e-05
9.21381e-05
9.04565e-05
8.79194e-05
8.45333e-05
8.02151e-05
7.36643e-05
6.12753e-05
5.24897e-05
0.000404172
0.0002
0.0002
0.0002
0.0002
0.0002
0.0002
0.0002
0.00042855
4.91695e-05
6.31135e-05
7.42401e-05
8.22173e-05
8.70234e-05
8.96799e-05
9.11316e-05
9.19743e-05
9.25088e-05
9.2869e-05
9.31148e-05
9.32784e-05
9.33822e-05
9.34436e-05
9.34768e-05
9.34923e-05
9.34975e-05
9.3497e-05
9.3494e-05
9.34903e-05
9.34866e-05
9.34834e-05
9.34807e-05
9.34786e-05
9.3477e-05
9.34758e-05
9.34749e-05
9.34742e-05
9.34737e-05
9.34733e-05
9.3473e-05
9.34726e-05
9.34714e-05
9.34659e-05
9.34357e-05
0.000185345
0.000170065
0.000156909
0.000145688
0.000136198
0.000128223
0.000121551
0.000115983
0.000111352
0.00010752
0.000104377
0.000101831
9.98023e-05
9.82176e-05
9.70072e-05
9.61057e-05
9.54542e-05
9.50059e-05
9.47118e-05
9.45235e-05
9.43855e-05
9.42183e-05
9.38977e-05
9.32447e-05
9.20504e-05
9.01453e-05
8.74755e-05
8.39531e-05
7.87718e-05
6.9135e-05
5.07073e-05
4.96938e-05
0.000146405
0.0002
0.0002
0.0002
0.0002
0.0002
0.000157918
5.16953e-05
7.12481e-05
7.88702e-05
8.45896e-05
8.91105e-05
9.16807e-05
9.2907e-05
9.34309e-05
9.36635e-05
9.37899e-05
9.38741e-05
9.39327e-05
9.397e-05
9.39898e-05
9.39952e-05
9.39936e-05
9.39863e-05
9.39767e-05
9.39668e-05
9.39576e-05
9.39497e-05
9.39433e-05
9.39382e-05
9.39344e-05
9.39315e-05
9.39293e-05
9.39277e-05
9.39265e-05
9.39256e-05
9.39249e-05
9.39244e-05
9.3924e-05
9.39236e-05
9.39224e-05
9.39168e-05
9.38868e-05
0.000185478
0.000170492
0.000157847
0.000147345
0.000138689
0.000131522
0.000125498
0.000120326
0.000115821
0.000111878
0.000108456
0.000105546
0.000103133
0.000101179
9.96493e-05
9.84885e-05
9.7635e-05
9.70384e-05
9.6633e-05
9.63623e-05
9.61705e-05
9.60084e-05
9.58037e-05
9.54122e-05
9.46833e-05
9.34713e-05
9.16943e-05
8.93134e-05
8.60606e-05
8.0564e-05
7.05234e-05
6.6567e-05
3.15796e-05
4.99067e-05
7.86793e-05
9.97159e-05
7.8562e-05
4.95444e-05
3.62787e-05
7.54221e-05
8.77233e-05
9.26506e-05
9.63377e-05
9.82151e-05
9.86545e-05
9.83254e-05
9.77697e-05
9.72562e-05
9.68654e-05
9.65915e-05
9.64027e-05
9.62704e-05
9.6175e-05
9.61038e-05
9.60485e-05
9.60041e-05
9.59692e-05
9.59422e-05
9.59215e-05
9.59058e-05
9.58941e-05
9.58853e-05
9.58787e-05
9.58738e-05
9.58701e-05
9.58672e-05
9.58651e-05
9.58634e-05
9.58622e-05
9.58612e-05
9.58605e-05
9.58598e-05
9.58584e-05
9.58528e-05
9.58234e-05
0.000185819
0.000171682
0.000160555
0.000152184
0.00014596
0.0001411
0.000136896
0.000132843
0.000128738
0.000124581
0.000120573
0.000116887
0.000113637
0.000110892
0.000108659
0.000106904
0.000105605
0.000104671
0.000103994
0.000103494
0.000103102
0.000102763
0.000102427
0.000102022
0.000101456
0.000100633
9.94989e-05
9.80777e-05
9.64053e-05
9.41882e-05
9.02046e-05
8.58275e-05
7.63003e-05
7.63663e-05
8.48529e-05
9.51878e-05
9.79791e-05
9.64661e-05
9.77396e-05
0.000103256
0.000109193
0.000113124
0.000114554
0.000113966
0.00011229
0.000110341
0.000108579
0.000107175
0.000106131
0.000105384
0.000104852
0.000104469
0.000104195
0.000103998
0.000103856
0.000103752
0.000103676
0.000103616
0.000103571
0.000103537
0.00010351
0.00010349
0.000103474
0.000103463
0.000103454
0.000103447
0.000103442
0.000103438
0.000103435
0.000103432
0.000103431
0.000103429
0.000103427
0.000103422
0.000103395
0.00018683
0.000175393
0.000169048
0.000167169
0.000168158
0.00016991
0.000170714
0.000169644
0.000166627
0.000162111
0.000156766
0.000151262
0.000146136
0.000141677
0.000137981
0.00013504
0.000132869
0.000131195
0.000129849
0.000128709
0.00012767
0.000126661
0.00012565
0.0001246
0.00012352
0.000122289
0.000120919
0.000119513
0.000118273
0.000117419
0.000116796
0.000116149
0.000114885
0.000115057
0.000116941
0.000120852
0.000126526
0.000133854
0.000142228
0.00014963
0.000154316
0.000155622
0.000154023
0.000150654
0.000146674
0.000142883
0.000139668
0.000137126
0.000135204
0.000133829
0.000132835
0.000132108
0.000131575
0.00013118
0.000130886
0.000130665
0.000130497
0.000130369
0.000130271
0.000130197
0.00013014
0.000130096
0.000130063
0.000130037
0.000130017
0.000130002
0.000129991
0.000129982
0.000129975
0.00012997
0.000129966
0.000129962
0.00012996
0.000129955
0.000129939
0.000190144
0.000187465
0.000196083
0.000214037
0.000236198
0.000255853
0.000268841
0.000273976
0.000272422
0.000266381
0.000257941
0.000248622
0.000239701
0.000231834
0.000225284
0.000220217
0.000216221
0.000212919
0.000210057
0.000207433
0.000204884
0.000202287
0.000199572
0.000196704
0.000193665
0.000190503
0.000187319
0.00018435
0.000181996
0.000180792
0.000181243
0.000183528
0.000187563
0.000193304
0.000200521
0.000209805
0.00022258
0.000236586
0.000248831
0.000256903
0.000259748
0.000257762
0.000252448
0.000245611
0.000238679
0.000232505
0.000227435
0.000223489
0.000220519
0.00021832
0.0002167
0.000215508
0.000214626
0.000213966
0.000213469
0.000213092
0.000212804
0.000212583
0.000212413
0.000212282
0.000212181
0.000212103
0.000212043
0.000211996
0.00021196
0.000211932
0.00021191
0.000211893
0.00021188
0.00021187
0.000211863
0.000211857
0.000211855
0.000211857
0.000211874
0.000201168
0.000225174
0.000281909
0.000360869
0.00044133
0.000503208
0.000540259
0.000553463
0.000548711
0.00053364
0.000514295
0.000494782
0.000477375
0.000462898
0.000451493
0.000442667
0.000435393
0.000429221
0.000423745
0.000418602
0.0004135
0.00040823
0.000402678
0.000396822
0.00039071
0.000384557
0.000378765
0.000373971
0.000371059
0.000371122
0.000375298
0.000384361
0.000398445
0.000417051
0.00043917
0.000464219
0.000490271
0.000512008
0.000525728
0.000529757
0.000524912
0.000513775
0.000499599
0.000485137
0.000472134
0.000461374
0.000452958
0.000446612
0.000441916
0.000438464
0.000435928
0.000434058
0.000432666
0.000431616
0.000430818
0.000430206
0.000429732
0.000429364
0.000429079
0.000428856
0.000428683
0.000428548
0.000428442
0.00042836
0.000428295
0.000428245
0.000428206
0.000428175
0.000428151
0.000428133
0.00042812
0.000428111
0.000428113
0.000428142
0.000428257
0.000235268
0.000342885
0.000562319
0.000827147
0.00105622
0.00118571
0.00122639
0.00120635
0.00115518
0.00109564
0.00104055
0.000995274
0.000960606
0.000935105
0.000916627
0.000902718
0.00089224
0.000884156
0.000877622
0.000872023
0.000866941
0.000862155
0.000857653
0.000853646
0.000850609
0.00084939
0.000851269
0.000857978
0.000871624
0.000894449
0.000928372
0.000974114
0.00103032
0.00109299
0.00115537
0.00120875
0.00124219
0.00125145
0.00123677
0.00120267
0.00115667
0.00110674
0.00105931
0.00101803
0.000984291
0.000957893
0.000937815
0.000922776
0.000911566
0.000903195
0.00089692
0.000892189
0.000888598
0.000885852
0.000883742
0.000882114
0.000880854
0.000879878
0.000879123
0.000878537
0.000878083
0.000877731
0.000877458
0.000877247
0.000877083
0.000876956
0.000876858
0.000876783
0.000876725
0.00087668
0.000876649
0.000876634
0.000876654
0.000876768
0.000877129
0.000334008
0.000746517
0.00156088
0.00227962
0.00259478
0.00258357
0.00239831
0.00216532
0.00195473
0.0017907
0.0016729
0.00159269
0.00154019
0.00150674
0.00148614
0.00147434
0.00146875
0.00146767
0.00147012
0.00147567
0.00148433
0.00149657
0.00151328
0.00153595
0.00156673
0.00160865
0.00166567
0.00174262
0.00184468
0.00197629
0.00213914
0.00232923
0.00253335
0.0027289
0.00288587
0.00296264
0.0029453
0.0028439
0.00268204
0.00248942
0.00229362
0.0021144
0.0019618
0.00183795
0.00174071
0.00166592
0.00160906
0.00156604
0.00153351
0.00150888
0.0014902
0.001476
0.00146519
0.00145694
0.00145064
0.00144583
0.00144215
0.00143933
0.00143719
0.00143555
0.0014343
0.00143335
0.00143262
0.00143207
0.00143165
0.00143133
0.00143109
0.0014309
0.00143076
0.00143066
0.00143059
0.00143056
0.00143062
0.0014309
0.00143166
)
;

boundaryField
{
    ibCylinder
    {
        type            immersedBoundaryEpsilonWallFunction;
        patchType       immersedBoundary;
        blending        stepwise;
        setDeadValue    true;
        deadValue       0.0002;
        value           nonuniform List<scalar> 0();
    }
    in
    {
        type            fixedValue;
        value           uniform 0.0002;
    }
    out
    {
        type            inletOutlet;
        inletValue      uniform 0.0002;
        value           nonuniform List<scalar> 
25
(
0.00143967
0.000885471
0.000437217
0.000218908
0.000134083
0.000105339
9.65836e-05
9.41437e-05
9.35128e-05
9.33596e-05
9.33244e-05
9.33167e-05
9.33152e-05
9.33156e-05
9.33192e-05
9.33387e-05
9.34357e-05
9.38868e-05
9.58234e-05
0.000103395
0.000129939
0.000211874
0.000428257
0.000877129
0.00143166
)
;
    }
    top
    {
        type            zeroGradient;
    }
    bottom
    {
        type            zeroGradient;
    }
    frontAndBack
    {
        type            empty;
    }
}


// ************************************************************************* //
