/*--------------------------------*- C++ -*----------------------------------*\
| =========                 |                                                 |
| \\      /  F ield         | OpenFOAM: The Open Source CFD Toolbox           |
|  \\    /   O peration     | Version:  2206                                  |
|   \\  /    A nd           | Website:  www.openfoam.com                      |
|    \\/     M anipulation  |                                                 |
\*---------------------------------------------------------------------------*/
FoamFile
{
    version     2.0;
    format      ascii;
    arch        "LSB;label=32;scalar=64";
    class       volScalarField;
    location    "0.4";
    object      k;
}
// * * * * * * * * * * * * * * * * * * * * * * * * * * * * * * * * * * * * * //

dimensions      [0 2 -2 0 0 0 0];

internalField   nonuniform List<scalar> 
1875
(
0.000205223
0.000344164
0.000584496
0.000798964
0.00091431
0.000942019
0.000914869
0.000865096
0.000813885
0.000770873
0.000738331
0.000715308
0.000699779
0.000689613
0.000683159
0.000679316
0.000677354
0.000676767
0.000677255
0.000678677
0.000681027
0.000684428
0.00068915
0.000695627
0.000704502
0.00071666
0.000733243
0.000755583
0.000785031
0.000822609
0.000868476
0.000921196
0.000976957
0.00102973
0.00107181
0.00109247
0.00108838
0.00106227
0.00101995
0.000968756
0.000915721
0.000866199
0.000823194
0.000787656
0.000759306
0.000737212
0.00072023
0.000707269
0.000697401
0.000689889
0.000684166
0.000679802
0.00067647
0.000673922
0.000671972
0.00067048
0.000669338
0.000668464
0.000667797
0.000667287
0.000666898
0.000666601
0.000666375
0.000666203
0.000666073
0.000665973
0.000665898
0.000665842
0.000665799
0.000665768
0.000665746
0.000665736
0.000665746
0.00066579
0.000665869
0.000165498
0.000204032
0.00027698
0.000366295
0.000449399
0.000504926
0.000532767
0.000538961
0.000531691
0.000518376
0.000503918
0.000490923
0.000480361
0.000472235
0.00046611
0.000461294
0.000457524
0.000454507
0.000451981
0.00044974
0.000447634
0.000445578
0.00044356
0.00044164
0.000439974
0.000438846
0.000438691
0.000440111
0.00044384
0.000450665
0.000461266
0.000475915
0.000494209
0.000514904
0.000535892
0.000554304
0.000566429
0.000570977
0.000567836
0.000558188
0.000544258
0.000528572
0.000513297
0.000499774
0.000488588
0.000479768
0.000473032
0.00046798
0.000464215
0.000461408
0.000459308
0.000457728
0.00045653
0.000455616
0.000454914
0.000454372
0.000453953
0.000453629
0.000453377
0.000453182
0.000453031
0.000452914
0.000452823
0.000452753
0.000452698
0.000452656
0.000452624
0.000452599
0.00045258
0.000452565
0.000452555
0.000452551
0.00045256
0.000452606
0.000452757
0.000151283
0.000160525
0.00018074
0.000209321
0.000240312
0.000266899
0.000285917
0.000296433
0.000299613
0.000297798
0.000293187
0.000287507
0.000281888
0.000276898
0.000272788
0.000269488
0.000266663
0.000264194
0.000261957
0.000259828
0.0002577
0.000255496
0.000253175
0.000250733
0.000248194
0.000245651
0.000243282
0.000241372
0.000240322
0.000240619
0.000242738
0.000246922
0.000253109
0.000261013
0.000270222
0.000280508
0.000291012
0.000299868
0.000305573
0.000307364
0.000305456
0.000300826
0.000294803
0.000288574
0.000282923
0.000278225
0.000274548
0.000271783
0.000269751
0.00026827
0.000267194
0.00026641
0.000265833
0.000265403
0.00026508
0.000264834
0.000264645
0.000264499
0.000264386
0.000264299
0.000264231
0.000264178
0.000264137
0.000264104
0.000264079
0.00026406
0.000264045
0.000264033
0.000264024
0.000264017
0.000264012
0.000264009
0.000264015
0.000264049
0.000264205
0.000146378
0.000145507
0.000148681
0.000155371
0.000164154
0.000172759
0.000179444
0.000183359
0.000184576
0.000183704
0.000181462
0.000178442
0.000175247
0.000172245
0.000169631
0.000167551
0.000165864
0.000164436
0.000163176
0.00016201
0.000160877
0.000159735
0.000158573
0.000157401
0.000156245
0.000155171
0.000154283
0.000153771
0.00015391
0.000155001
0.000157172
0.000160143
0.000163428
0.000166723
0.000169961
0.000173766
0.000178988
0.000184851
0.000189924
0.000192986
0.000193466
0.000191533
0.000187947
0.000183656
0.000179427
0.00017572
0.000172714
0.000170404
0.000168692
0.000167448
0.000166552
0.000165907
0.000165441
0.000165101
0.000164851
0.000164665
0.000164526
0.000164421
0.000164341
0.00016428
0.000164234
0.000164198
0.000164171
0.000164149
0.000164133
0.00016412
0.000164111
0.000164103
0.000164097
0.000164093
0.00016409
0.000164088
0.00016409
0.000164109
0.000164211
0.000144807
0.00014023
0.000137614
0.000136717
0.000137021
0.000137816
0.000138443
0.000138448
0.000137682
0.000136214
0.00013426
0.000132094
0.000129973
0.000128057
0.000126422
0.000125088
0.000124086
0.000123303
0.000122669
0.000122134
0.00012166
0.000121235
0.000120884
0.000120649
0.000120625
0.000120848
0.000121476
0.000122754
0.000124993
0.000128352
0.000132317
0.000135715
0.000137201
0.000137118
0.000136322
0.000136416
0.000137763
0.000140428
0.000143899
0.000146703
0.00014773
0.000146687
0.000143955
0.000140311
0.000136528
0.000133129
0.000130343
0.000128196
0.000126611
0.000125501
0.000124724
0.000124177
0.000123793
0.000123522
0.000123329
0.000123191
0.000123091
0.000123017
0.000122962
0.000122922
0.000122892
0.000122869
0.000122852
0.000122839
0.000122829
0.000122821
0.000122815
0.000122811
0.000122808
0.000122805
0.000122803
0.000122802
0.000122802
0.00012281
0.000122855
0.000144297
0.000138457
0.000133762
0.000130153
0.000127417
0.000125269
0.000123439
0.000121708
0.000119965
0.000118172
0.000116412
0.000114754
0.00011325
0.000111946
0.000110861
0.000109991
0.000109339
0.000108868
0.000108534
0.000108307
0.00010817
0.000108135
0.000108248
0.000108583
0.000109252
0.000110427
0.000112379
0.000115521
0.000120282
0.000126409
0.000131972
0.000135763
0.000134081
0.00013124
0.000130564
0.000132888
0.000134313
0.000133927
0.000134073
0.000134609
0.000134286
0.000132655
0.000129751
0.000125976
0.000122024
0.000118461
0.000115562
0.000113363
0.000111772
0.000110659
0.000109894
0.000109371
0.000109019
0.000108784
0.000108627
0.000108522
0.000108452
0.000108402
0.000108367
0.000108343
0.000108325
0.000108312
0.000108303
0.000108296
0.00010829
0.000108287
0.000108284
0.000108281
0.00010828
0.000108279
0.000108278
0.000108277
0.000108277
0.000108278
0.000108288
0.000144115
0.000137841
0.000132407
0.000127799
0.000123937
0.000120701
0.00011796
0.000115595
0.00011352
0.000111685
0.000110066
0.000108664
0.000107479
0.000106498
0.000105718
0.000105119
0.000104676
0.000104371
0.000104177
0.000104084
0.000104096
0.00010426
0.000104661
0.000105402
0.000106671
0.000108757
0.000112127
0.000117458
0.000125269
0.000134053
0.000140351
0.000146556
0.000140627
0.000134877
0.000129891
0.000128031
0.000128312
0.000130666
0.000141842
0.000152418
0.000145558
0.00013661
0.000130174
0.000124609
0.000119584
0.000115283
0.000111868
0.00010932
0.000107503
0.000106249
0.000105401
0.000104836
0.000104464
0.000104221
0.000104063
0.000103959
0.000103891
0.000103846
0.000103818
0.000103799
0.000103786
0.000103778
0.000103773
0.000103769
0.000103766
0.000103764
0.000103763
0.000103762
0.000103761
0.00010376
0.00010376
0.00010376
0.000103759
0.000103758
0.000103751
0.000144041
0.000137605
0.000131897
0.000126913
0.000122619
0.000118962
0.000115872
0.000113273
0.000111092
0.000109269
0.000107755
0.00010651
0.000105501
0.000104701
0.000104082
0.000103618
0.000103284
0.000103064
0.000102944
0.000102928
0.000103043
0.000103358
0.000103986
0.000105102
0.000106977
0.000110053
0.000115054
0.000122985
0.000134177
0.000144315
0.000155343
0.000145599
0.000142323
0.00015
0.00015
0.00015
0.00015
0.00015
0.000140095
0.000142938
0.000152993
0.000143158
0.00013404
0.000127104
0.000121079
0.000116
0.000111976
0.000108975
0.000106836
0.00010536
0.000104363
0.000103701
0.000103267
0.000102985
0.000102805
0.000102689
0.000102616
0.000102569
0.000102539
0.00010252
0.000102509
0.000102501
0.000102496
0.000102493
0.000102491
0.000102489
0.000102488
0.000102488
0.000102487
0.000102487
0.000102487
0.000102487
0.000102486
0.000102483
0.00010247
0.000144006
0.000137502
0.000131682
0.000126544
0.000122073
0.000118242
0.000115009
0.000112315
0.000110097
0.00010829
0.000106832
0.00010567
0.000104755
0.000104049
0.000103515
0.000103123
0.000102849
0.000102676
0.000102601
0.000102636
0.000102831
0.00010328
0.000104141
0.000105653
0.000108194
0.00011241
0.00011935
0.000130358
0.000144797
0.000153772
0.000148127
0.000146868
0.00015
0.00015
0.00015
0.00015
0.00015
0.00015
0.00015
0.000138072
0.000138404
0.000142664
0.000136279
0.000129524
0.000123105
0.000117504
0.000113
0.000109608
0.000107171
0.000105478
0.000104329
0.000103562
0.000103057
0.000102729
0.000102517
0.000102383
0.000102298
0.000102244
0.000102211
0.00010219
0.000102177
0.000102169
0.000102164
0.000102161
0.000102159
0.000102158
0.000102157
0.000102157
0.000102156
0.000102156
0.000102156
0.000102155
0.000102155
0.000102152
0.000102136
0.000143989
0.000137451
0.00013158
0.000126371
0.000121818
0.000117908
0.000114609
0.000111874
0.00010964
0.000107843
0.000106414
0.000105293
0.000104427
0.000103768
0.000103278
0.000102924
0.000102682
0.000102537
0.00010249
0.000102565
0.000102828
0.000103408
0.000104509
0.000106451
0.000109755
0.000115343
0.000124707
0.000139458
0.00015546
0.000150695
0.000149532
0.00015
0.00015
0.00015
0.00015
0.00015
0.00015
0.00015
0.00015
0.00015
0.00013253
0.000133305
0.000134083
0.000129841
0.000124195
0.000118598
0.000113882
0.000110255
0.000107618
0.000105768
0.000104503
0.000103652
0.000103089
0.00010272
0.000102482
0.000102329
0.000102233
0.000102173
0.000102135
0.000102112
0.000102098
0.000102089
0.000102084
0.00010208
0.000102078
0.000102077
0.000102076
0.000102076
0.000102076
0.000102075
0.000102075
0.000102075
0.000102074
0.000102071
0.000102055
0.00014398
0.000137425
0.000131527
0.000126283
0.00012169
0.00011774
0.000114408
0.000111652
0.000109412
0.000107619
0.000106205
0.000105105
0.000104262
0.000103627
0.000103159
0.000102825
0.000102599
0.000102469
0.000102439
0.000102542
0.000102862
0.000103557
0.00010489
0.000107276
0.000111445
0.000118686
0.000130831
0.000149015
0.000168378
0.000160634
0.00015
0.00015
0.00015
0.00015
0.00015
0.00015
0.00015
0.00015
0.00015
0.00015
0.00015
0.000127514
0.000130337
0.000128596
0.000124202
0.000118989
0.000114318
0.000110629
0.000107906
0.000105978
0.000104649
0.000103748
0.000103148
0.000102753
0.000102496
0.000102332
0.000102227
0.000102161
0.000102121
0.000102095
0.00010208
0.000102071
0.000102065
0.000102062
0.00010206
0.000102058
0.000102058
0.000102057
0.000102057
0.000102057
0.000102057
0.000102056
0.000102056
0.000102053
0.000102036
0.000143975
0.000137411
0.000131501
0.000126239
0.000121627
0.000117658
0.00011431
0.000111544
0.0001093
0.00010751
0.000106104
0.000105014
0.000104183
0.000103559
0.000103101
0.000102775
0.000102557
0.000102434
0.000102411
0.000102528
0.000102883
0.000103658
0.000105159
0.000107901
0.000112846
0.000121686
0.000136178
0.000154137
0.000166397
0.000159566
0.00015
0.00015
0.00015
0.00015
0.00015
0.00015
0.00015
0.00015
0.00015
0.00015
0.00015
0.00012413
0.000126449
0.000126688
0.000123556
0.000118856
0.000114363
0.000110727
0.000108008
0.000106066
0.000104718
0.0001038
0.000103184
0.000102777
0.000102511
0.000102339
0.00010223
0.000102162
0.000102119
0.000102093
0.000102077
0.000102067
0.000102061
0.000102058
0.000102056
0.000102054
0.000102054
0.000102053
0.000102053
0.000102053
0.000102052
0.000102052
0.000102052
0.000102049
0.000102032
0.000143973
0.000137407
0.000131493
0.000126226
0.000121608
0.000117633
0.000114281
0.000111512
0.000109268
0.00010748
0.000106077
0.000104992
0.000104164
0.000103544
0.000103089
0.000102765
0.000102549
0.000102426
0.000102404
0.000102524
0.000102888
0.000103684
0.00010523
0.000108059
0.000113154
0.000122158
0.000136386
0.000151847
0.000168741
0.000160091
0.00015
0.00015
0.00015
0.00015
0.00015
0.00015
0.00015
0.00015
0.00015
0.00015
0.00015
0.000122582
0.000124727
0.000125621
0.000123049
0.000118628
0.000114262
0.000110691
0.000108004
0.000106077
0.000104734
0.000103815
0.000103197
0.000102787
0.000102518
0.000102344
0.000102233
0.000102163
0.00010212
0.000102093
0.000102076
0.000102066
0.00010206
0.000102057
0.000102055
0.000102053
0.000102053
0.000102052
0.000102052
0.000102052
0.000102052
0.000102051
0.000102051
0.000102048
0.000102031
0.000143975
0.000137411
0.000131501
0.000126239
0.000121627
0.000117659
0.000114313
0.000111549
0.000109308
0.000107521
0.000106118
0.000105031
0.000104201
0.000103577
0.000103119
0.000102792
0.000102572
0.000102446
0.000102421
0.000102537
0.000102889
0.000103661
0.000105157
0.000107891
0.000112827
0.000121644
0.000136077
0.000153976
0.000166316
0.000159693
0.00015
0.00015
0.00015
0.00015
0.00015
0.00015
0.00015
0.00015
0.00015
0.00015
0.00015
0.00012408
0.000126314
0.00012644
0.000123304
0.000118661
0.000114237
0.000110659
0.000107981
0.000106062
0.000104726
0.000103812
0.000103197
0.000102788
0.000102519
0.000102346
0.000102235
0.000102165
0.000102121
0.000102094
0.000102077
0.000102067
0.000102061
0.000102057
0.000102055
0.000102054
0.000102053
0.000102053
0.000102052
0.000102052
0.000102052
0.000102052
0.000102051
0.000102048
0.000102031
0.00014398
0.000137424
0.000131527
0.000126283
0.000121691
0.000117742
0.000114413
0.00011166
0.000109425
0.000107637
0.000106228
0.000105133
0.000104292
0.000103658
0.00010319
0.000102854
0.000102625
0.000102491
0.000102456
0.000102555
0.000102871
0.00010356
0.00010488
0.000107246
0.000111384
0.000118566
0.000130583
0.000148615
0.000168124
0.00016084
0.00015
0.00015
0.00015
0.00015
0.00015
0.00015
0.00015
0.00015
0.00015
0.00015
0.00015
0.000127318
0.000129964
0.000128112
0.000123775
0.000118695
0.000114151
0.000110556
0.000107894
0.000105997
0.00010468
0.000103781
0.000103177
0.000102776
0.000102513
0.000102343
0.000102234
0.000102166
0.000102122
0.000102096
0.000102079
0.000102069
0.000102063
0.00010206
0.000102057
0.000102056
0.000102055
0.000102055
0.000102054
0.000102054
0.000102054
0.000102054
0.000102053
0.00010205
0.000102033
0.000143989
0.000137451
0.00013158
0.000126371
0.000121819
0.000117909
0.000114612
0.000111879
0.00010965
0.000107857
0.000106433
0.000105317
0.000104454
0.000103797
0.000103307
0.000102952
0.000102707
0.000102557
0.000102505
0.000102575
0.000102833
0.000103403
0.000104486
0.000106397
0.000109653
0.000115168
0.00012441
0.000139007
0.000155176
0.000151128
0.000149797
0.00015
0.00015
0.00015
0.00015
0.00015
0.00015
0.00015
0.00015
0.00015
0.000132347
0.000132739
0.000133264
0.000129153
0.000123716
0.000118324
0.000113765
0.000110241
0.000107659
0.000105832
0.000104568
0.000103709
0.000103133
0.000102751
0.000102502
0.00010234
0.000102237
0.000102172
0.000102131
0.000102105
0.000102089
0.00010208
0.000102074
0.00010207
0.000102068
0.000102066
0.000102065
0.000102065
0.000102065
0.000102064
0.000102064
0.000102064
0.000102063
0.00010206
0.000102043
0.000144006
0.000137502
0.000131682
0.000126543
0.00012207
0.000118237
0.000114999
0.0001123
0.000110078
0.000108269
0.000106813
0.000105653
0.000104742
0.000104039
0.000103507
0.000103117
0.000102842
0.000102667
0.000102588
0.00010262
0.000102809
0.000103248
0.000104091
0.000105571
0.000108062
0.000112203
0.000119028
0.000129866
0.000144326
0.000153937
0.000148593
0.000146302
0.00015
0.00015
0.00015
0.00015
0.00015
0.00015
0.00015
0.000138247
0.000137823
0.000141415
0.000135252
0.000128866
0.000122738
0.000117347
0.000112981
0.000109667
0.000107262
0.000105571
0.000104407
0.000103618
0.000103091
0.000102743
0.000102516
0.000102369
0.000102275
0.000102215
0.000102177
0.000102154
0.000102139
0.00010213
0.000102125
0.000102121
0.000102119
0.000102118
0.000102117
0.000102116
0.000102116
0.000102115
0.000102115
0.000102115
0.000102114
0.000102111
0.000102094
0.000144041
0.000137605
0.000131897
0.000126909
0.000122606
0.000118933
0.000115818
0.000113189
0.000110979
0.000109133
0.000107604
0.000106352
0.000105346
0.000104553
0.000103943
0.000103489
0.000103163
0.000102947
0.00010283
0.000102814
0.000102929
0.000103238
0.000103854
0.000104945
0.000106776
0.000109785
0.00011468
0.000122459
0.000133546
0.000143957
0.000155667
0.000145969
0.000142415
0.00015
0.00015
0.00015
0.00015
0.00015
0.000140133
0.000142787
0.00015191
0.000142185
0.000133414
0.000126726
0.000120877
0.000115923
0.000111979
0.000109016
0.000106881
0.000105387
0.000104363
0.000103672
0.000103211
0.000102906
0.000102708
0.00010258
0.000102497
0.000102444
0.00010241
0.000102389
0.000102376
0.000102367
0.000102362
0.000102359
0.000102356
0.000102355
0.000102354
0.000102354
0.000102353
0.000102353
0.000102353
0.000102352
0.000102352
0.000102349
0.000102332
0.000144115
0.000137842
0.000132405
0.000127786
0.000123894
0.000120603
0.000117783
0.000115323
0.000113154
0.000111239
0.000109566
0.000108138
0.00010695
0.000105984
0.000105229
0.000104658
0.000104242
0.000103958
0.000103782
0.000103701
0.000103723
0.000103892
0.000104292
0.000105023
0.000106265
0.000108304
0.000111595
0.000116808
0.000124497
0.000133247
0.000139956
0.000146843
0.000140705
0.000134673
0.00012958
0.000127635
0.000127684
0.000129883
0.000141147
0.000151808
0.000145015
0.000136264
0.000129849
0.000124258
0.000119247
0.000114984
0.000111604
0.000109072
0.000107251
0.00010598
0.000105108
0.000104518
0.000104124
0.000103863
0.000103691
0.000103577
0.000103503
0.000103455
0.000103424
0.000103404
0.000103391
0.000103383
0.000103378
0.000103374
0.000103372
0.00010337
0.000103369
0.000103369
0.000103368
0.000103368
0.000103367
0.000103367
0.000103366
0.000103363
0.000103347
0.000144298
0.00013846
0.000133759
0.000130117
0.000127299
0.000125004
0.000122969
0.000121
0.000119025
0.000117041
0.000115151
0.000113428
0.000111916
0.000110642
0.00010961
0.000108802
0.000108209
0.00010779
0.000107498
0.000107306
0.000107197
0.000107186
0.000107319
0.000107666
0.000108337
0.000109497
0.000111413
0.000114493
0.00011918
0.000125297
0.000131037
0.000135088
0.000133539
0.000130826
0.000130179
0.000132374
0.000133627
0.0001331
0.000133001
0.000133281
0.000133099
0.000131469
0.000128493
0.000124705
0.000120805
0.000117322
0.000114497
0.000112347
0.000110784
0.000109682
0.000108916
0.000108388
0.00010803
0.000107789
0.000107628
0.000107522
0.000107451
0.000107402
0.000107368
0.000107345
0.000107329
0.000107318
0.000107309
0.000107304
0.000107299
0.000107296
0.000107294
0.000107292
0.000107291
0.00010729
0.000107289
0.000107289
0.000107288
0.000107285
0.00010727
0.00014481
0.000140238
0.000137608
0.000136636
0.000136752
0.000137219
0.000137401
0.000136912
0.000135685
0.000133854
0.000131666
0.000129393
0.000127266
0.000125413
0.000123876
0.000122651
0.000121752
0.000121057
0.000120497
0.000120024
0.000119603
0.000119225
0.000118916
0.000118716
0.000118721
0.000118965
0.0001196
0.000120872
0.0001231
0.000126475
0.000130538
0.000134119
0.000135821
0.000135879
0.000135055
0.00013501
0.00013616
0.00013852
0.000141576
0.000143958
0.000144701
0.000143533
0.000140835
0.000137339
0.000133754
0.000130547
0.000127918
0.000125885
0.000124378
0.000123318
0.000122571
0.000122044
0.000121674
0.000121413
0.000121228
0.000121096
0.000121001
0.000120933
0.000120883
0.000120847
0.00012082
0.0001208
0.000120785
0.000120774
0.000120766
0.00012076
0.000120755
0.000120751
0.000120749
0.000120747
0.000120745
0.000120744
0.000120743
0.00012074
0.000120731
0.000146384
0.000145525
0.000148676
0.000155221
0.000163641
0.000171624
0.000177503
0.000180577
0.000181071
0.000179684
0.000177153
0.000174042
0.000170896
0.000168018
0.000165561
0.000163638
0.000162089
0.000160776
0.00015961
0.00015852
0.00015745
0.000156362
0.000155244
0.000154109
0.000152981
0.000151927
0.000151052
0.000150543
0.000150681
0.000151776
0.00015398
0.00015702
0.000160385
0.000163694
0.000166815
0.000170357
0.00017519
0.00018052
0.000185038
0.000187673
0.000187957
0.000186077
0.000182733
0.000178779
0.000174899
0.000171496
0.000168729
0.000166595
0.000165005
0.000163845
0.000163005
0.000162399
0.000161961
0.000161642
0.000161408
0.000161235
0.000161105
0.000161008
0.000160935
0.00016088
0.000160838
0.000160806
0.000160782
0.000160763
0.000160749
0.000160738
0.000160729
0.000160723
0.000160718
0.000160714
0.000160711
0.000160709
0.000160708
0.00016071
0.000160718
0.000151292
0.000160556
0.00018075
0.000209111
0.000239503
0.000265092
0.000282914
0.00029232
0.000294682
0.00029241
0.000287656
0.000282048
0.000276615
0.000271846
0.000267948
0.000264826
0.00026214
0.000259777
0.000257616
0.000255539
0.000253442
0.000251252
0.000248928
0.000246468
0.000243893
0.000241296
0.000238854
0.000236852
0.00023569
0.000235856
0.000237824
0.000241834
0.000247802
0.000255404
0.0002642
0.000273965
0.000283878
0.000292131
0.000297412
0.000299087
0.0002974
0.000293256
0.000287856
0.000282261
0.000277171
0.000272924
0.000269587
0.000267067
0.000265206
0.000263845
0.000262853
0.000262129
0.000261595
0.000261198
0.000260899
0.000260672
0.000260498
0.000260364
0.00026026
0.00026018
0.000260119
0.00026007
0.000260033
0.000260004
0.000259981
0.000259963
0.000259949
0.000259939
0.00025993
0.000259924
0.000259919
0.000259917
0.000259918
0.000259933
0.00025999
0.000165503
0.000204072
0.00027703
0.00036606
0.00044831
0.000502514
0.000529008
0.000534217
0.00052646
0.000513076
0.000498804
0.000486102
0.000475838
0.000467966
0.000462033
0.000457351
0.00045367
0.000450705
0.000448201
0.000445955
0.000443824
0.000441722
0.000439635
0.000437623
0.000435837
0.000434558
0.000434218
0.000435412
0.000438868
0.000445361
0.000455555
0.000469704
0.000487386
0.000507359
0.000527534
0.000545126
0.000556558
0.000560729
0.000557652
0.000548505
0.000535397
0.000520681
0.000506361
0.000493671
0.000483154
0.000474844
0.000468481
0.000463697
0.000460125
0.000457456
0.000455456
0.000453951
0.000452808
0.000451936
0.000451265
0.000450748
0.000450348
0.000450038
0.000449798
0.000449612
0.000449468
0.000449356
0.000449269
0.000449202
0.00044915
0.000449109
0.000449078
0.000449054
0.000449035
0.000449021
0.000449011
0.000449008
0.000449019
0.000449073
0.000449247
0.000205242
0.000344237
0.000584488
0.000798286
0.000912437
0.000938911
0.000910891
0.000860726
0.000809492
0.000766654
0.000734349
0.000711548
0.000696195
0.000686152
0.000679779
0.000675984
0.000674044
0.000673458
0.000673932
0.000675326
0.000677634
0.000680981
0.000685636
0.000692034
0.000700819
0.000712879
0.000729355
0.000751581
0.000780905
0.000818345
0.000864062
0.000916626
0.000972245
0.00102491
0.00106692
0.00108751
0.00108342
0.00105743
0.00101533
0.00096439
0.000911619
0.000862332
0.000819514
0.000784114
0.000755863
0.000733837
0.000716904
0.00070398
0.00069414
0.00068665
0.000680946
0.000676597
0.000673277
0.00067074
0.000668798
0.000667313
0.000666177
0.000665308
0.000664644
0.000664138
0.000663751
0.000663456
0.000663231
0.00066306
0.00066293
0.000662831
0.000662756
0.000662699
0.000662656
0.000662624
0.000662603
0.000662597
0.000662629
0.000662758
0.000663108
)
;

boundaryField
{
    ibCylinder
    {
        type            immersedBoundaryKqRWallFunction;
        patchType       immersedBoundary;
        setDeadValue    true;
        deadValue       0.00015;
        value           nonuniform List<scalar> 0();
    }
    in
    {
        type            fixedValue;
        value           uniform 0.00015;
    }
    out
    {
        type            inletOutlet;
        inletValue      uniform 0.00015;
        value           nonuniform List<scalar> 
25
(
0.000665869
0.000452757
0.000264205
0.000164211
0.000122855
0.000108288
0.000103751
0.00010247
0.000102136
0.000102055
0.000102036
0.000102032
0.000102031
0.000102031
0.000102033
0.000102043
0.000102094
0.000102332
0.000103347
0.00010727
0.000120731
0.000160718
0.00025999
0.000449247
0.000663108
)
;
    }
    top
    {
        type            zeroGradient;
    }
    bottom
    {
        type            zeroGradient;
    }
    frontAndBack
    {
        type            empty;
    }
}


// ************************************************************************* //
