/*--------------------------------*- C++ -*----------------------------------*\
| =========                 |                                                 |
| \\      /  F ield         | OpenFOAM: The Open Source CFD Toolbox           |
|  \\    /   O peration     | Version:  2206                                  |
|   \\  /    A nd           | Website:  www.openfoam.com                      |
|    \\/     M anipulation  |                                                 |
\*---------------------------------------------------------------------------*/
FoamFile
{
    version     2.0;
    format      ascii;
    arch        "LSB;label=32;scalar=64";
    class       volScalarField;
    location    "0.4";
    object      nut;
}
// * * * * * * * * * * * * * * * * * * * * * * * * * * * * * * * * * * * * * //

dimensions      [0 2 -1 0 0 0 0];

internalField   nonuniform List<scalar> 
1875
(
1.13446e-05
1.42682e-05
1.96702e-05
2.51388e-05
2.88834e-05
3.07508e-05
3.12078e-05
3.08832e-05
3.02696e-05
2.96422e-05
2.91128e-05
2.87089e-05
2.84192e-05
2.82172e-05
2.80788e-05
2.79878e-05
2.79329e-05
2.79048e-05
2.78974e-05
2.79076e-05
2.79347e-05
2.79807e-05
2.8051e-05
2.81549e-05
2.83063e-05
2.85246e-05
2.88345e-05
2.92639e-05
2.98404e-05
3.05836e-05
3.1495e-05
3.2545e-05
3.36579e-05
3.47163e-05
3.55688e-05
3.59949e-05
3.59339e-05
3.54506e-05
3.46566e-05
3.36876e-05
3.26745e-05
3.17193e-05
3.08811e-05
3.01813e-05
2.96174e-05
2.91742e-05
2.8831e-05
2.85675e-05
2.83658e-05
2.82117e-05
2.80939e-05
2.80039e-05
2.79349e-05
2.78822e-05
2.78417e-05
2.78107e-05
2.77869e-05
2.77687e-05
2.77548e-05
2.77442e-05
2.77361e-05
2.77299e-05
2.77252e-05
2.77216e-05
2.77188e-05
2.77167e-05
2.77152e-05
2.7714e-05
2.77131e-05
2.77124e-05
2.7712e-05
2.77119e-05
2.77125e-05
2.77143e-05
2.77176e-05
1.04801e-05
1.09291e-05
1.22679e-05
1.45536e-05
1.71048e-05
1.9174e-05
2.05824e-05
2.13735e-05
2.1703e-05
2.175e-05
2.16536e-05
2.15038e-05
2.13496e-05
2.12116e-05
2.10933e-05
2.09858e-05
2.08913e-05
2.08075e-05
2.073e-05
2.06549e-05
2.05784e-05
2.0498e-05
2.04124e-05
2.03224e-05
2.02307e-05
2.01431e-05
2.00698e-05
2.00252e-05
2.00284e-05
2.01013e-05
2.0265e-05
2.05323e-05
2.09013e-05
2.13506e-05
2.18372e-05
2.22906e-05
2.26132e-05
2.27843e-05
2.27992e-05
2.26767e-05
2.24573e-05
2.21906e-05
2.19209e-05
2.16772e-05
2.14734e-05
2.13122e-05
2.11892e-05
2.10975e-05
2.10298e-05
2.09796e-05
2.09425e-05
2.09147e-05
2.08938e-05
2.08778e-05
2.08656e-05
2.08562e-05
2.08489e-05
2.08432e-05
2.08388e-05
2.08354e-05
2.08327e-05
2.08307e-05
2.08291e-05
2.08278e-05
2.08268e-05
2.08261e-05
2.08255e-05
2.0825e-05
2.08247e-05
2.08244e-05
2.08242e-05
2.08242e-05
2.08247e-05
2.08269e-05
2.08353e-05
1.02418e-05
1.03045e-05
1.0423e-05
1.08881e-05
1.16805e-05
1.25684e-05
1.33642e-05
1.39623e-05
1.43439e-05
1.45476e-05
1.46253e-05
1.46258e-05
1.45866e-05
1.45314e-05
1.44752e-05
1.44218e-05
1.43664e-05
1.43107e-05
1.42547e-05
1.41973e-05
1.41367e-05
1.4072e-05
1.40025e-05
1.39288e-05
1.38519e-05
1.3775e-05
1.37036e-05
1.36471e-05
1.36183e-05
1.36323e-05
1.37005e-05
1.38223e-05
1.39866e-05
1.41814e-05
1.44012e-05
1.46476e-05
1.4896e-05
1.51126e-05
1.52622e-05
1.5322e-05
1.52919e-05
1.51922e-05
1.50546e-05
1.49091e-05
1.47761e-05
1.46657e-05
1.45802e-05
1.4517e-05
1.44718e-05
1.44398e-05
1.44174e-05
1.44017e-05
1.43907e-05
1.43828e-05
1.43771e-05
1.43729e-05
1.43698e-05
1.43674e-05
1.43656e-05
1.43643e-05
1.43633e-05
1.43625e-05
1.43618e-05
1.43614e-05
1.4361e-05
1.43607e-05
1.43605e-05
1.43603e-05
1.43602e-05
1.43601e-05
1.436e-05
1.436e-05
1.43603e-05
1.43618e-05
1.4369e-05
1.01431e-05
1.0168e-05
1.01434e-05
1.01212e-05
1.01882e-05
1.03492e-05
1.055e-05
1.07355e-05
1.08789e-05
1.0976e-05
1.10336e-05
1.10593e-05
1.10662e-05
1.10634e-05
1.10563e-05
1.10502e-05
1.10425e-05
1.10324e-05
1.10203e-05
1.10066e-05
1.09919e-05
1.09775e-05
1.09659e-05
1.09611e-05
1.09682e-05
1.09951e-05
1.10522e-05
1.11541e-05
1.13185e-05
1.15573e-05
1.18563e-05
1.21559e-05
1.23793e-05
1.24773e-05
1.24651e-05
1.24166e-05
1.23852e-05
1.23847e-05
1.23851e-05
1.23505e-05
1.22598e-05
1.21141e-05
1.19346e-05
1.17492e-05
1.15803e-05
1.14402e-05
1.13318e-05
1.12521e-05
1.11961e-05
1.11578e-05
1.11321e-05
1.11151e-05
1.11038e-05
1.10964e-05
1.10916e-05
1.10883e-05
1.10862e-05
1.10847e-05
1.10838e-05
1.10831e-05
1.10827e-05
1.10824e-05
1.10822e-05
1.1082e-05
1.10819e-05
1.10819e-05
1.10818e-05
1.10818e-05
1.10817e-05
1.10817e-05
1.10817e-05
1.10817e-05
1.10818e-05
1.10825e-05
1.10862e-05
1.01018e-05
1.00919e-05
1.0081e-05
1.00475e-05
9.99992e-06
9.95994e-06
9.93818e-06
9.93271e-06
9.93777e-06
9.94713e-06
9.95839e-06
9.97185e-06
9.98841e-06
1.00075e-05
1.00274e-05
1.00463e-05
1.00633e-05
1.00774e-05
1.00889e-05
1.00992e-05
1.01102e-05
1.01261e-05
1.01542e-05
1.02054e-05
1.02969e-05
1.04474e-05
1.06873e-05
1.1058e-05
1.16077e-05
1.23602e-05
1.32424e-05
1.40411e-05
1.45137e-05
1.44241e-05
1.39512e-05
1.34623e-05
1.30813e-05
1.28012e-05
1.25814e-05
1.23549e-05
1.20916e-05
1.1792e-05
1.14721e-05
1.1161e-05
1.08856e-05
1.06609e-05
1.04891e-05
1.03642e-05
1.02774e-05
1.02205e-05
1.01839e-05
1.01608e-05
1.01466e-05
1.01381e-05
1.01333e-05
1.01306e-05
1.01293e-05
1.01287e-05
1.01286e-05
1.01286e-05
1.01288e-05
1.0129e-05
1.01292e-05
1.01293e-05
1.01295e-05
1.01296e-05
1.01297e-05
1.01298e-05
1.01299e-05
1.01299e-05
1.013e-05
1.013e-05
1.01301e-05
1.01302e-05
1.01311e-05
1.0085e-05
1.00501e-05
1.00292e-05
1.00119e-05
9.98935e-06
9.96082e-06
9.931e-06
9.9051e-06
9.88684e-06
9.87685e-06
9.87711e-06
9.88597e-06
9.90028e-06
9.91761e-06
9.93585e-06
9.95336e-06
9.96903e-06
9.98283e-06
9.99564e-06
1.00095e-05
1.00285e-05
1.00606e-05
1.01203e-05
1.02301e-05
1.04236e-05
1.075e-05
1.12816e-05
1.21253e-05
1.34198e-05
1.52425e-05
1.74385e-05
1.94716e-05
2.13332e-05
2.03082e-05
1.80104e-05
1.65848e-05
1.64061e-05
1.64855e-05
1.61988e-05
1.53584e-05
1.43624e-05
1.34822e-05
1.27135e-05
1.20492e-05
1.14961e-05
1.10584e-05
1.07285e-05
1.049e-05
1.03236e-05
1.02111e-05
1.01369e-05
1.00889e-05
1.00589e-05
1.00406e-05
1.00298e-05
1.00237e-05
1.00205e-05
1.00188e-05
1.0018e-05
1.00177e-05
1.00177e-05
1.00178e-05
1.00179e-05
1.00181e-05
1.00182e-05
1.00184e-05
1.00185e-05
1.00186e-05
1.00186e-05
1.00187e-05
1.00187e-05
1.00188e-05
1.00188e-05
1.00188e-05
1.00188e-05
1.00779e-05
1.003e-05
9.99588e-06
9.97409e-06
9.96058e-06
9.95169e-06
9.94551e-06
9.94173e-06
9.94089e-06
9.94335e-06
9.94906e-06
9.95762e-06
9.96796e-06
9.9786e-06
9.98925e-06
9.99938e-06
1.00084e-05
1.00167e-05
1.00259e-05
1.00394e-05
1.00645e-05
1.01158e-05
1.02188e-05
1.04123e-05
1.07567e-05
1.13445e-05
1.23212e-05
1.3924e-05
1.65053e-05
2.03032e-05
2.56214e-05
2.97863e-05
5.60437e-05
3.26039e-05
1.92179e-05
1.47337e-05
1.87694e-05
3.08885e-05
4.96892e-05
2.74195e-05
2.13976e-05
1.77889e-05
1.54897e-05
1.39064e-05
1.27598e-05
1.19204e-05
1.13144e-05
1.08861e-05
1.05902e-05
1.039e-05
1.02573e-05
1.0171e-05
1.01158e-05
1.00813e-05
1.00601e-05
1.00472e-05
1.00396e-05
1.00352e-05
1.00328e-05
1.00314e-05
1.00308e-05
1.00305e-05
1.00303e-05
1.00303e-05
1.00303e-05
1.00304e-05
1.00304e-05
1.00305e-05
1.00305e-05
1.00305e-05
1.00305e-05
1.00306e-05
1.00306e-05
1.00306e-05
1.00305e-05
1.00747e-05
1.00206e-05
9.97847e-06
9.94956e-06
9.93345e-06
9.92825e-06
9.93138e-06
9.94013e-06
9.95217e-06
9.96565e-06
9.97912e-06
9.99159e-06
1.00025e-05
1.00117e-05
1.00193e-05
1.00256e-05
1.00312e-05
1.00371e-05
1.00458e-05
1.0063e-05
1.01006e-05
1.01812e-05
1.03429e-05
1.06458e-05
1.11836e-05
1.21071e-05
1.36703e-05
1.63236e-05
2.07984e-05
2.76304e-05
4.36075e-05
3.84349e-05
1.2415e-05
1e-06
1e-06
1e-06
1e-06
1e-06
1.12213e-05
3.52162e-05
2.93657e-05
2.31782e-05
1.89165e-05
1.61306e-05
1.4231e-05
1.29024e-05
1.19707e-05
1.1324e-05
1.08814e-05
1.0583e-05
1.03849e-05
1.02555e-05
1.01722e-05
1.01195e-05
1.00867e-05
1.00667e-05
1.00546e-05
1.00474e-05
1.00432e-05
1.00408e-05
1.00395e-05
1.00387e-05
1.00383e-05
1.00381e-05
1.0038e-05
1.0038e-05
1.0038e-05
1.0038e-05
1.0038e-05
1.0038e-05
1.0038e-05
1.0038e-05
1.0038e-05
1.0038e-05
1.00379e-05
1.00732e-05
1.00162e-05
9.96983e-06
9.93625e-06
9.91643e-06
9.90982e-06
9.91433e-06
9.92685e-06
9.94401e-06
9.96275e-06
9.98073e-06
9.99647e-06
1.00093e-05
1.00193e-05
1.00269e-05
1.00328e-05
1.00379e-05
1.00439e-05
1.00548e-05
1.00787e-05
1.0133e-05
1.02494e-05
1.04801e-05
1.09072e-05
1.16624e-05
1.29714e-05
1.52378e-05
1.92126e-05
2.59606e-05
3.53479e-05
3.77997e-05
4.80322e-06
1e-06
1e-06
1e-06
1e-06
1e-06
1e-06
1e-06
3.99569e-06
3.48948e-05
2.89224e-05
2.24446e-05
1.82762e-05
1.56045e-05
1.38029e-05
1.25677e-05
1.17211e-05
1.11452e-05
1.07574e-05
1.04995e-05
1.03302e-05
1.02206e-05
1.01508e-05
1.0107e-05
1.00799e-05
1.00634e-05
1.00535e-05
1.00477e-05
1.00443e-05
1.00424e-05
1.00413e-05
1.00407e-05
1.00403e-05
1.00402e-05
1.00401e-05
1.004e-05
1.004e-05
1.004e-05
1.004e-05
1.004e-05
1.004e-05
1.004e-05
1.004e-05
1.00399e-05
1.00724e-05
1.00139e-05
9.96542e-06
9.92927e-06
9.90697e-06
9.89861e-06
9.90256e-06
9.91578e-06
9.93456e-06
9.95537e-06
9.97543e-06
9.99298e-06
1.00072e-05
1.00183e-05
1.00265e-05
1.00328e-05
1.00383e-05
1.00455e-05
1.00593e-05
1.00909e-05
1.0163e-05
1.03159e-05
1.06157e-05
1.11661e-05
1.21401e-05
1.38562e-05
1.69314e-05
2.25015e-05
3.10416e-05
5.97482e-05
1.26182e-05
1e-06
1e-06
1e-06
1e-06
1e-06
1e-06
1e-06
1e-06
1e-06
1.0924e-05
5.15287e-05
2.59398e-05
1.98201e-05
1.65424e-05
1.44261e-05
1.29919e-05
1.20114e-05
1.13433e-05
1.08917e-05
1.05895e-05
1.03898e-05
1.02596e-05
1.01759e-05
1.01229e-05
1.009e-05
1.00697e-05
1.00575e-05
1.00503e-05
1.0046e-05
1.00436e-05
1.00422e-05
1.00414e-05
1.00409e-05
1.00407e-05
1.00406e-05
1.00405e-05
1.00405e-05
1.00405e-05
1.00404e-05
1.00404e-05
1.00404e-05
1.00404e-05
1.00404e-05
1.00404e-05
1.0072e-05
1.00127e-05
9.96311e-06
9.92559e-06
9.90189e-06
9.89238e-06
9.89568e-06
9.90887e-06
9.92813e-06
9.94974e-06
9.97071e-06
9.98912e-06
1.00041e-05
1.00157e-05
1.00244e-05
1.00311e-05
1.00372e-05
1.00453e-05
1.00617e-05
1.00996e-05
1.01862e-05
1.03694e-05
1.07267e-05
1.1383e-05
1.25555e-05
1.46547e-05
1.84522e-05
2.53832e-05
3.53985e-05
3.61774e-05
1e-06
1e-06
1e-06
1e-06
1e-06
1e-06
1e-06
1e-06
1e-06
1e-06
1e-06
2.98567e-05
2.46285e-05
1.98578e-05
1.67489e-05
1.46386e-05
1.31733e-05
1.21548e-05
1.14516e-05
1.09708e-05
1.06458e-05
1.04288e-05
1.0286e-05
1.01934e-05
1.01344e-05
1.00972e-05
1.00743e-05
1.00604e-05
1.0052e-05
1.00471e-05
1.00442e-05
1.00426e-05
1.00417e-05
1.00411e-05
1.00409e-05
1.00407e-05
1.00406e-05
1.00406e-05
1.00406e-05
1.00405e-05
1.00405e-05
1.00405e-05
1.00405e-05
1.00405e-05
1.00405e-05
1.00718e-05
1.00121e-05
9.96197e-06
9.92377e-06
9.89936e-06
9.88926e-06
9.89217e-06
9.90524e-06
9.92466e-06
9.94658e-06
9.96794e-06
9.98673e-06
1.00021e-05
1.0014e-05
1.00229e-05
1.00297e-05
1.0036e-05
1.00447e-05
1.00623e-05
1.01037e-05
1.01984e-05
1.03991e-05
1.07917e-05
1.15212e-05
1.28583e-05
1.53134e-05
1.96348e-05
2.6438e-05
4.12959e-05
2.28032e-05
1e-06
1e-06
1e-06
1e-06
1e-06
1e-06
1e-06
1e-06
1e-06
1e-06
1e-06
1.73409e-05
2.04141e-05
1.87876e-05
1.64608e-05
1.45725e-05
1.31789e-05
1.21832e-05
1.14843e-05
1.10005e-05
1.067e-05
1.04474e-05
1.02996e-05
1.0203e-05
1.01409e-05
1.01016e-05
1.00771e-05
1.00621e-05
1.00531e-05
1.00478e-05
1.00447e-05
1.00428e-05
1.00418e-05
1.00412e-05
1.00409e-05
1.00408e-05
1.00407e-05
1.00406e-05
1.00406e-05
1.00406e-05
1.00406e-05
1.00406e-05
1.00406e-05
1.00405e-05
1.00405e-05
1.00717e-05
1.00119e-05
9.96162e-06
9.92321e-06
9.8986e-06
9.88831e-06
9.89112e-06
9.90416e-06
9.92362e-06
9.94563e-06
9.96709e-06
9.98599e-06
1.00014e-05
1.00134e-05
1.00223e-05
1.00292e-05
1.00356e-05
1.00443e-05
1.00623e-05
1.01044e-05
1.0201e-05
1.04057e-05
1.08063e-05
1.1552e-05
1.29217e-05
1.5416e-05
1.96176e-05
2.5442e-05
3.86949e-05
1.887e-05
1e-06
1e-06
1e-06
1e-06
1e-06
1e-06
1e-06
1e-06
1e-06
1e-06
1e-06
1.31303e-05
1.87011e-05
1.84414e-05
1.6368e-05
1.4529e-05
1.31552e-05
1.21725e-05
1.1482e-05
1.10027e-05
1.06742e-05
1.04518e-05
1.03036e-05
1.02062e-05
1.01433e-05
1.01033e-05
1.00783e-05
1.0063e-05
1.00537e-05
1.00481e-05
1.00449e-05
1.0043e-05
1.00419e-05
1.00413e-05
1.0041e-05
1.00408e-05
1.00407e-05
1.00406e-05
1.00406e-05
1.00406e-05
1.00406e-05
1.00406e-05
1.00406e-05
1.00405e-05
1.00405e-05
1.00718e-05
1.00121e-05
9.96196e-06
9.92377e-06
9.89938e-06
9.8893e-06
9.89226e-06
9.90538e-06
9.92482e-06
9.94676e-06
9.9681e-06
9.98686e-06
1.00022e-05
1.0014e-05
1.00228e-05
1.00297e-05
1.0036e-05
1.00446e-05
1.00623e-05
1.01037e-05
1.01984e-05
1.03986e-05
1.07898e-05
1.1517e-05
1.28504e-05
1.5294e-05
1.95777e-05
2.63538e-05
4.12868e-05
2.30556e-05
1e-06
1e-06
1e-06
1e-06
1e-06
1e-06
1e-06
1e-06
1e-06
1e-06
1e-06
1.73357e-05
2.0349e-05
1.85948e-05
1.63236e-05
1.44864e-05
1.31271e-05
1.21539e-05
1.14694e-05
1.09943e-05
1.06687e-05
1.04484e-05
1.03016e-05
1.02051e-05
1.01427e-05
1.0103e-05
1.00782e-05
1.00629e-05
1.00537e-05
1.00481e-05
1.00449e-05
1.0043e-05
1.00419e-05
1.00413e-05
1.0041e-05
1.00408e-05
1.00407e-05
1.00406e-05
1.00406e-05
1.00406e-05
1.00406e-05
1.00406e-05
1.00406e-05
1.00405e-05
1.00405e-05
1.0072e-05
1.00127e-05
9.9631e-06
9.92559e-06
9.90192e-06
9.89246e-06
9.89583e-06
9.90909e-06
9.92841e-06
9.95004e-06
9.97099e-06
9.98935e-06
1.00043e-05
1.00158e-05
1.00244e-05
1.0031e-05
1.00371e-05
1.00452e-05
1.00617e-05
1.00997e-05
1.0186e-05
1.03678e-05
1.07214e-05
1.13704e-05
1.25302e-05
1.46036e-05
1.83427e-05
2.5199e-05
3.51825e-05
3.63278e-05
1e-06
1e-06
1e-06
1e-06
1e-06
1e-06
1e-06
1e-06
1e-06
1e-06
1e-06
2.98081e-05
2.4412e-05
1.9561e-05
1.65542e-05
1.452e-05
1.31065e-05
1.21218e-05
1.14393e-05
1.097e-05
1.06505e-05
1.04355e-05
1.02928e-05
1.01993e-05
1.0139e-05
1.01007e-05
1.00768e-05
1.00621e-05
1.00532e-05
1.00479e-05
1.00447e-05
1.00429e-05
1.00419e-05
1.00413e-05
1.00409e-05
1.00408e-05
1.00407e-05
1.00406e-05
1.00406e-05
1.00406e-05
1.00405e-05
1.00405e-05
1.00405e-05
1.00405e-05
1.00405e-05
1.00724e-05
1.00139e-05
9.96542e-06
9.92927e-06
9.907e-06
9.89869e-06
9.90272e-06
9.91604e-06
9.93493e-06
9.95582e-06
9.97592e-06
9.99344e-06
1.00076e-05
1.00185e-05
1.00267e-05
1.00329e-05
1.00384e-05
1.00456e-05
1.00594e-05
1.00911e-05
1.01627e-05
1.03136e-05
1.06077e-05
1.11462e-05
1.20991e-05
1.37797e-05
1.67959e-05
2.22497e-05
3.06241e-05
5.96564e-05
1.2663e-05
1e-06
1e-06
1e-06
1e-06
1e-06
1e-06
1e-06
1e-06
1e-06
1.09099e-05
5.12839e-05
2.55453e-05
1.95727e-05
1.63991e-05
1.43512e-05
1.2962e-05
1.20089e-05
1.13554e-05
1.09098e-05
1.06086e-05
1.0407e-05
1.02738e-05
1.0187e-05
1.01312e-05
1.00958e-05
1.00738e-05
1.00603e-05
1.00521e-05
1.00472e-05
1.00443e-05
1.00426e-05
1.00417e-05
1.00411e-05
1.00408e-05
1.00407e-05
1.00406e-05
1.00405e-05
1.00405e-05
1.00405e-05
1.00405e-05
1.00405e-05
1.00405e-05
1.00404e-05
1.00404e-05
1.00732e-05
1.00162e-05
9.96982e-06
9.93624e-06
9.91642e-06
9.90985e-06
9.91449e-06
9.92725e-06
9.94473e-06
9.96381e-06
9.98207e-06
9.99796e-06
1.00108e-05
1.00207e-05
1.00282e-05
1.00338e-05
1.00387e-05
1.00446e-05
1.00555e-05
1.00794e-05
1.01333e-05
1.02475e-05
1.04723e-05
1.08867e-05
1.16185e-05
1.28874e-05
1.50839e-05
1.89226e-05
2.54492e-05
3.48051e-05
3.78587e-05
4.76623e-06
1e-06
1e-06
1e-06
1e-06
1e-06
1e-06
1e-06
4.01376e-06
3.47686e-05
2.85173e-05
2.21765e-05
1.81784e-05
1.55798e-05
1.38195e-05
1.26063e-05
1.17687e-05
1.11932e-05
1.08009e-05
1.05361e-05
1.03594e-05
1.02429e-05
1.01671e-05
1.01186e-05
1.00879e-05
1.00688e-05
1.00571e-05
1.00501e-05
1.00458e-05
1.00434e-05
1.00419e-05
1.00411e-05
1.00406e-05
1.00404e-05
1.00402e-05
1.00402e-05
1.00401e-05
1.00401e-05
1.00401e-05
1.00401e-05
1.00401e-05
1.00401e-05
1.00401e-05
1.004e-05
1.00747e-05
1.00206e-05
9.97845e-06
9.9495e-06
9.9334e-06
9.92839e-06
9.93201e-06
9.9416e-06
9.95472e-06
9.96931e-06
9.98369e-06
9.99671e-06
1.00078e-05
1.00167e-05
1.00238e-05
1.00295e-05
1.00344e-05
1.00397e-05
1.0048e-05
1.00649e-05
1.0102e-05
1.0181e-05
1.03379e-05
1.06301e-05
1.11472e-05
1.20333e-05
1.3531e-05
1.60763e-05
2.03766e-05
2.69782e-05
4.30095e-05
3.85891e-05
1.24679e-05
1e-06
1e-06
1e-06
1e-06
1e-06
1.11916e-05
3.54951e-05
2.91502e-05
2.30696e-05
1.89377e-05
1.62198e-05
1.43434e-05
1.30178e-05
1.20789e-05
1.14196e-05
1.09619e-05
1.06481e-05
1.04357e-05
1.02938e-05
1.02003e-05
1.01396e-05
1.01007e-05
1.00763e-05
1.0061e-05
1.00517e-05
1.00461e-05
1.00428e-05
1.00408e-05
1.00397e-05
1.00391e-05
1.00387e-05
1.00386e-05
1.00385e-05
1.00384e-05
1.00384e-05
1.00384e-05
1.00384e-05
1.00384e-05
1.00384e-05
1.00384e-05
1.00384e-05
1.00383e-05
1.00779e-05
1.003e-05
9.99582e-06
9.97407e-06
9.96094e-06
9.9531e-06
9.94877e-06
9.94748e-06
9.94936e-06
9.9543e-06
9.96186e-06
9.97137e-06
9.98171e-06
9.99154e-06
1.00008e-05
1.00093e-05
1.00166e-05
1.00234e-05
1.00313e-05
1.00439e-05
1.00681e-05
1.01181e-05
1.0218e-05
1.04042e-05
1.07338e-05
1.12942e-05
1.22234e-05
1.37491e-05
1.6209e-05
1.98343e-05
2.49972e-05
2.91534e-05
5.64227e-05
3.27072e-05
1.92071e-05
1.47034e-05
1.86768e-05
3.06443e-05
4.94236e-05
2.75001e-05
2.1575e-05
1.80368e-05
1.57517e-05
1.41487e-05
1.29724e-05
1.21019e-05
1.14656e-05
1.10091e-05
1.06876e-05
1.04652e-05
1.03139e-05
1.02125e-05
1.01457e-05
1.01024e-05
1.00747e-05
1.00573e-05
1.00466e-05
1.00401e-05
1.00362e-05
1.0034e-05
1.00327e-05
1.00321e-05
1.00317e-05
1.00316e-05
1.00315e-05
1.00315e-05
1.00315e-05
1.00315e-05
1.00315e-05
1.00315e-05
1.00316e-05
1.00316e-05
1.00316e-05
1.00316e-05
1.00315e-05
1.0085e-05
1.005e-05
1.00292e-05
1.00126e-05
9.9921e-06
9.96701e-06
9.94128e-06
9.91924e-06
9.90405e-06
9.89614e-06
9.8975e-06
9.90645e-06
9.91985e-06
9.9354e-06
9.95123e-06
9.966e-06
9.97891e-06
9.99019e-06
1.00009e-05
1.00132e-05
1.00309e-05
1.0062e-05
1.012e-05
1.0226e-05
1.04116e-05
1.07227e-05
1.12278e-05
1.2029e-05
1.32602e-05
1.50013e-05
1.71318e-05
1.91359e-05
2.10345e-05
2.01712e-05
1.79746e-05
1.6568e-05
1.6402e-05
1.65282e-05
1.62884e-05
1.54833e-05
1.46014e-05
1.37509e-05
1.29716e-05
1.22811e-05
1.16968e-05
1.12271e-05
1.08663e-05
1.05993e-05
1.04077e-05
1.02739e-05
1.01824e-05
1.01209e-05
1.00805e-05
1.00547e-05
1.00385e-05
1.00286e-05
1.00228e-05
1.00194e-05
1.00175e-05
1.00165e-05
1.0016e-05
1.00158e-05
1.00158e-05
1.00158e-05
1.00159e-05
1.0016e-05
1.00161e-05
1.00162e-05
1.00162e-05
1.00163e-05
1.00163e-05
1.00163e-05
1.00164e-05
1.00163e-05
1.00162e-05
1.01017e-05
1.00916e-05
1.00814e-05
1.00511e-05
1.0009e-05
9.97363e-06
9.95299e-06
9.94455e-06
9.94398e-06
9.947e-06
9.95265e-06
9.96173e-06
9.97498e-06
9.99144e-06
1.00091e-05
1.00259e-05
1.00409e-05
1.00533e-05
1.00636e-05
1.00732e-05
1.00841e-05
1.01003e-05
1.01288e-05
1.01799e-05
1.02697e-05
1.04157e-05
1.06466e-05
1.10023e-05
1.15311e-05
1.22606e-05
1.31306e-05
1.39383e-05
1.44515e-05
1.44423e-05
1.40378e-05
1.35744e-05
1.31874e-05
1.29015e-05
1.26834e-05
1.2465e-05
1.22116e-05
1.19145e-05
1.15899e-05
1.12681e-05
1.09775e-05
1.07348e-05
1.05441e-05
1.04009e-05
1.02976e-05
1.02268e-05
1.01791e-05
1.01473e-05
1.01266e-05
1.01135e-05
1.01054e-05
1.01005e-05
1.00977e-05
1.00962e-05
1.00955e-05
1.00952e-05
1.00951e-05
1.00952e-05
1.00953e-05
1.00954e-05
1.00956e-05
1.00957e-05
1.00958e-05
1.00959e-05
1.0096e-05
1.0096e-05
1.00961e-05
1.00961e-05
1.00961e-05
1.00961e-05
1.00958e-05
1.01426e-05
1.0167e-05
1.01457e-05
1.01311e-05
1.02036e-05
1.03612e-05
1.05477e-05
1.07117e-05
1.08317e-05
1.09083e-05
1.09501e-05
1.09651e-05
1.09656e-05
1.09592e-05
1.09504e-05
1.09435e-05
1.09358e-05
1.09262e-05
1.0915e-05
1.09027e-05
1.08899e-05
1.08777e-05
1.08686e-05
1.08664e-05
1.08759e-05
1.09047e-05
1.09626e-05
1.10642e-05
1.12278e-05
1.14676e-05
1.17736e-05
1.20906e-05
1.23431e-05
1.24758e-05
1.24897e-05
1.24493e-05
1.24101e-05
1.23967e-05
1.2384e-05
1.23389e-05
1.22408e-05
1.20895e-05
1.19043e-05
1.1712e-05
1.15346e-05
1.13846e-05
1.12659e-05
1.11766e-05
1.1112e-05
1.10666e-05
1.10353e-05
1.1014e-05
1.09998e-05
1.09902e-05
1.09839e-05
1.09797e-05
1.0977e-05
1.09752e-05
1.0974e-05
1.09732e-05
1.09727e-05
1.09724e-05
1.09722e-05
1.09721e-05
1.0972e-05
1.09719e-05
1.09719e-05
1.09719e-05
1.09719e-05
1.09719e-05
1.09718e-05
1.09718e-05
1.09719e-05
1.09719e-05
1.09722e-05
1.02404e-05
1.03033e-05
1.04301e-05
1.09055e-05
1.16977e-05
1.25686e-05
1.33336e-05
1.38954e-05
1.42432e-05
1.44205e-05
1.44803e-05
1.44702e-05
1.44256e-05
1.43683e-05
1.43117e-05
1.42589e-05
1.42045e-05
1.41502e-05
1.40956e-05
1.40396e-05
1.39806e-05
1.39174e-05
1.38495e-05
1.37774e-05
1.3702e-05
1.36264e-05
1.35562e-05
1.35008e-05
1.34735e-05
1.34903e-05
1.35637e-05
1.36943e-05
1.38702e-05
1.40769e-05
1.43046e-05
1.45515e-05
1.47935e-05
1.5001e-05
1.51425e-05
1.51971e-05
1.51648e-05
1.50648e-05
1.4927e-05
1.47802e-05
1.46444e-05
1.45303e-05
1.44405e-05
1.43732e-05
1.43242e-05
1.42892e-05
1.42644e-05
1.4247e-05
1.42348e-05
1.4226e-05
1.42198e-05
1.42153e-05
1.42119e-05
1.42095e-05
1.42076e-05
1.42063e-05
1.42052e-05
1.42045e-05
1.42039e-05
1.42034e-05
1.42031e-05
1.42028e-05
1.42026e-05
1.42024e-05
1.42023e-05
1.42022e-05
1.42021e-05
1.42021e-05
1.42023e-05
1.42029e-05
1.42054e-05
1.04783e-05
1.09311e-05
1.22832e-05
1.45803e-05
1.71255e-05
1.91672e-05
2.0537e-05
2.12914e-05
2.15936e-05
2.16241e-05
2.15198e-05
2.13675e-05
2.12136e-05
2.10771e-05
2.09603e-05
2.0854e-05
2.07607e-05
2.06775e-05
2.06006e-05
2.05257e-05
2.04491e-05
2.03683e-05
2.02822e-05
2.01914e-05
2.00984e-05
2.00092e-05
1.99339e-05
1.98869e-05
1.98875e-05
1.99577e-05
2.01188e-05
2.03836e-05
2.075e-05
2.11961e-05
2.16782e-05
2.21259e-05
2.24427e-05
2.26118e-05
2.26297e-05
2.25142e-05
2.23041e-05
2.20465e-05
2.17842e-05
2.15456e-05
2.13448e-05
2.11849e-05
2.10625e-05
2.09708e-05
2.09029e-05
2.08526e-05
2.08153e-05
2.07875e-05
2.07666e-05
2.07508e-05
2.07387e-05
2.07294e-05
2.07222e-05
2.07166e-05
2.07123e-05
2.0709e-05
2.07064e-05
2.07044e-05
2.07028e-05
2.07016e-05
2.07006e-05
2.06999e-05
2.06993e-05
2.06989e-05
2.06985e-05
2.06983e-05
2.06981e-05
2.06982e-05
2.06988e-05
2.07011e-05
2.07086e-05
1.13506e-05
1.42863e-05
1.96981e-05
2.51592e-05
2.88767e-05
3.07093e-05
3.11365e-05
3.07929e-05
3.01703e-05
2.95405e-05
2.9012e-05
2.86101e-05
2.83224e-05
2.8122e-05
2.79846e-05
2.78945e-05
2.784e-05
2.78122e-05
2.78049e-05
2.78151e-05
2.78421e-05
2.7888e-05
2.79582e-05
2.80621e-05
2.82136e-05
2.84324e-05
2.8743e-05
2.91738e-05
2.97521e-05
3.04976e-05
3.14118e-05
3.24649e-05
3.35815e-05
3.46438e-05
3.54998e-05
3.59277e-05
3.5868e-05
3.53861e-05
3.45931e-05
3.36241e-05
3.26098e-05
3.16522e-05
3.08107e-05
3.0107e-05
2.95395e-05
2.90929e-05
2.8747e-05
2.84813e-05
2.82781e-05
2.81228e-05
2.80042e-05
2.79136e-05
2.78443e-05
2.77913e-05
2.77506e-05
2.77195e-05
2.76957e-05
2.76775e-05
2.76635e-05
2.76529e-05
2.76448e-05
2.76386e-05
2.76338e-05
2.76302e-05
2.76275e-05
2.76254e-05
2.76238e-05
2.76226e-05
2.76217e-05
2.76211e-05
2.76207e-05
2.76208e-05
2.76222e-05
2.76275e-05
2.76421e-05
)
;

boundaryField
{
    ibCylinder
    {
        type            immersedBoundaryNutWallFunction;
        patchType       immersedBoundary;
        blending        stepwise;
        value           nonuniform List<scalar> 0();
    }
    in
    {
        type            zeroGradient;
    }
    out
    {
        type            zeroGradient;
    }
    top
    {
        type            zeroGradient;
    }
    bottom
    {
        type            zeroGradient;
    }
    frontAndBack
    {
        type            empty;
    }
}


// ************************************************************************* //
