/*--------------------------------*- C++ -*----------------------------------*\
| =========                 |                                                 |
| \\      /  F ield         | OpenFOAM: The Open Source CFD Toolbox           |
|  \\    /   O peration     | Version:  2206                                  |
|   \\  /    A nd           | Website:  www.openfoam.com                      |
|    \\/     M anipulation  |                                                 |
\*---------------------------------------------------------------------------*/
FoamFile
{
    version     2.0;
    format      ascii;
    arch        "LSB;label=32;scalar=64";
    class       volScalarField;
    location    "0.4";
    object      p;
}
// * * * * * * * * * * * * * * * * * * * * * * * * * * * * * * * * * * * * * //

dimensions      [0 2 -2 0 0 0 0];

internalField   nonuniform List<scalar> 
1875
(
3.92152
3.53187
3.28083
3.18303
3.12338
3.07692
3.04377
3.02123
3.0051
2.99259
2.98223
2.97307
2.96439
2.95566
2.9464
2.93618
2.92479
2.91196
2.89739
2.88073
2.8615
2.83914
2.81289
2.78182
2.74474
2.70022
2.64659
2.5819
2.50409
2.41108
2.3011
2.17325
2.02791
1.86748
1.69566
1.51773
1.34083
1.17267
1.01753
0.878539
0.757354
0.653927
0.567245
0.495724
0.437298
0.389803
0.351199
0.319661
0.293637
0.271855
0.253305
0.237186
0.222881
0.209924
0.197963
0.186732
0.176037
0.165731
0.155707
0.145884
0.136206
0.12663
0.117127
0.107675
0.0982577
0.0888648
0.0794883
0.0701227
0.0607644
0.0514105
0.0420598
0.0327109
0.0233634
0.0140168
0.00467123
3.54625
3.39065
3.26199
3.18461
3.13146
3.08856
3.05498
3.03065
3.01243
2.99792
2.986
2.97569
2.96619
2.95688
2.94729
2.9369
2.92536
2.91248
2.89795
2.88136
2.86226
2.84008
2.81409
2.78333
2.74665
2.70259
2.64942
2.58516
2.50761
2.41457
2.30408
2.17499
2.02783
1.86508
1.69057
1.51032
1.3329
1.16484
1.01032
0.872473
0.752679
0.65039
0.564504
0.493672
0.435802
0.388735
0.350457
0.31917
0.293329
0.271677
0.25322
0.237164
0.222896
0.209961
0.198011
0.186786
0.17609
0.165782
0.155752
0.145924
0.13624
0.12666
0.117152
0.107695
0.0982746
0.0888786
0.0794995
0.0701317
0.0607714
0.0514161
0.042064
0.0327141
0.0233655
0.0140182
0.00467143
3.36932
3.31894
3.2484
3.18981
3.14232
3.10154
3.06857
3.04262
3.02208
3.00555
2.99211
2.98057
2.97007
2.96009
2.95011
2.93959
2.92811
2.91539
2.90121
2.88519
2.86687
2.84569
2.8209
2.79156
2.75654
2.71433
2.66303
2.60043
2.52398
2.43092
2.31871
2.18538
2.0313
1.85995
1.67561
1.48609
1.30368
1.1334
0.979321
0.844535
0.729284
0.631728
0.55002
0.482701
0.427668
0.38281
0.346208
0.316172
0.291232
0.270232
0.25226
0.236537
0.222492
0.209714
0.19787
0.186714
0.176064
0.165784
0.155771
0.14595
0.13627
0.126689
0.117179
0.107721
0.0982969
0.0888978
0.0795157
0.0701451
0.0607824
0.0514249
0.0420708
0.0327192
0.0233691
0.0140204
0.00467192
3.29004
3.26916
3.22421
3.18013
3.14213
3.10881
3.0796
3.05366
3.03273
3.01564
3.00095
2.98799
2.97638
2.9657
2.95533
2.9447
2.93351
2.92132
2.90795
2.8931
2.87636
2.85724
2.83496
2.80852
2.77672
2.73811
2.69067
2.63164
2.55771
2.4651
2.34983
2.20781
2.03923
1.84998
1.64536
1.43871
1.24487
1.06864
0.91483
0.786451
0.680512
0.593021
0.520473
0.460713
0.411604
0.371237
0.337967
0.310398
0.287117
0.267352
0.250337
0.235249
0.221618
0.209151
0.197518
0.186502
0.175951
0.165736
0.155761
0.145961
0.136292
0.126717
0.11721
0.10775
0.0983245
0.0889224
0.079537
0.0701632
0.0607974
0.0514371
0.0420805
0.0327265
0.0233742
0.0140235
0.00467291
3.23767
3.22689
3.19941
3.16743
3.13761
3.11034
3.08524
3.06227
3.04273
3.02573
3.01026
2.9966
2.98445
2.97332
2.96266
2.95196
2.94091
2.92949
2.9173
2.90402
2.88935
2.873
2.85433
2.83257
2.80577
2.77235
2.73078
2.67759
2.60831
2.5174
2.39837
2.24145
2.04918
1.82872
1.58828
1.35996
1.15202
0.964212
0.809972
0.692887
0.603162
0.533477
0.475819
0.42801
0.388169
0.354655
0.326242
0.30207
0.281251
0.263336
0.247712
0.233422
0.220307
0.208285
0.196949
0.18613
0.175734
0.165627
0.155714
0.145951
0.136304
0.126741
0.11724
0.107782
0.0983557
0.0889509
0.0795621
0.0701848
0.0608155
0.0514519
0.0420923
0.0327355
0.0233806
0.0140275
0.00467446
3.20154
3.19537
3.17795
3.15515
3.13188
3.10943
3.08808
3.06792
3.04944
3.03309
3.01851
3.00489
2.99231
2.98086
2.9701
2.95956
2.94918
2.93884
2.92816
2.91698
2.9052
2.89235
2.87784
2.86128
2.84113
2.81551
2.78248
2.73831
2.67729
2.59135
2.46936
2.29699
2.08572
1.84253
1.53074
1.25363
1.0276
0.821159
0.657668
0.557029
0.490794
0.449363
0.413831
0.382892
0.356042
0.332107
0.310345
0.290792
0.273478
0.257958
0.243803
0.230583
0.218428
0.207164
0.196252
0.185658
0.175423
0.16543
0.155594
0.145881
0.136271
0.126734
0.117248
0.1078
0.0983779
0.0889736
0.0795835
0.0702042
0.0608325
0.0514662
0.0421039
0.0327445
0.0233871
0.0140314
0.0046762
3.17619
3.17228
3.1605
3.14379
3.12551
3.10702
3.08876
3.07111
3.05449
3.03909
3.02476
3.01136
2.9991
2.98782
2.97712
2.9671
2.95772
2.94861
2.93967
2.93094
2.92232
2.91343
2.90388
2.89339
2.88112
2.86545
2.84417
2.81343
2.76663
2.69359
2.57564
2.41511
2.17576
1.98295
1.57277
1.17255
0.906477
0.646793
0.432319
0.36622
0.345745
0.339479
0.335374
0.326052
0.31579
0.304041
0.290718
0.277039
0.263758
0.250972
0.238703
0.227117
0.216142
0.205516
0.195122
0.184957
0.175012
0.165198
0.15546
0.145799
0.136228
0.12672
0.117252
0.107811
0.098391
0.0889879
0.0795985
0.0702187
0.0608458
0.0514778
0.0421136
0.0327522
0.0233928
0.014035
0.00467793
3.15795
3.1552
3.14669
3.13402
3.11939
3.10395
3.08822
3.07263
3.05753
3.04312
3.02954
3.0168
3.00501
2.99406
2.98378
2.97438
2.96587
2.95806
2.95097
2.9447
2.9392
2.9344
2.93037
2.92703
2.92381
2.91972
2.91305
2.90055
2.87588
2.82892
2.73389
2.61568
2.2986
0
0
0
0
0
0.40961
0.211213
0.201811
0.219088
0.249421
0.264731
0.271875
0.273039
0.269028
0.26163
0.252683
0.243087
0.23321
0.223286
0.213335
0.203453
0.193694
0.184008
0.17436
0.164764
0.155209
0.145669
0.136161
0.126694
0.117254
0.107823
0.0984026
0.0890006
0.0796125
0.0702326
0.0608587
0.051489
0.0421229
0.0327597
0.0233985
0.0140387
0.00468005
3.14473
3.14263
3.13611
3.12611
3.1141
3.10095
3.08717
3.0732
3.05938
3.04596
3.03314
3.021
3.00965
2.99912
2.98945
2.98073
2.97308
2.96656
2.96126
2.95734
2.955
2.95444
2.95598
2.95982
2.96603
2.97441
2.98431
2.9941
3.00026
2.98582
2.91918
2.94067
0
0
0
0
0
0
0
0.139204
0.0988675
0.114153
0.164359
0.205666
0.228343
0.241527
0.246825
0.245991
0.241532
0.235116
0.227529
0.219219
0.210475
0.201444
0.192249
0.182974
0.173609
0.164212
0.15483
0.145437
0.13602
0.126601
0.117199
0.107804
0.0984018
0.0890066
0.0796227
0.0702451
0.0608706
0.0514993
0.0421315
0.0327666
0.0234039
0.0140424
0.00468216
3.13534
3.13364
3.12834
3.12007
3.10987
3.09839
3.08606
3.07329
3.06048
3.04788
3.03569
3.02408
3.01318
3.00312
2.99399
2.98592
2.97908
2.97371
2.97
2.96822
2.96872
2.97198
2.97856
2.98911
3.00427
3.02468
3.05081
3.08263
3.11433
3.13583
3.38161
0
0
0
0
0
0
0
0
0
-0.0505925
0.0247369
0.0887308
0.151492
0.189657
0.213513
0.226709
0.231656
0.231288
0.227768
0.222264
0.215454
0.207782
0.199527
0.190896
0.18201
0.17294
0.163756
0.154507
0.145205
0.135861
0.126492
0.11712
0.10775
0.0983746
0.0889945
0.079617
0.0702456
0.0608753
0.0515042
0.0421362
0.0327709
0.0234075
0.0140449
0.00468369
3.12906
3.12759
3.12303
3.11584
3.1068
3.09643
3.08511
3.0732
3.06109
3.04909
3.03739
3.02618
3.01566
3.00599
2.99732
2.98981
2.9836
2.97911
2.97666
2.97657
2.97935
2.98565
2.99633
3.0124
3.03504
3.06562
3.10547
3.15468
3.19972
3.23072
0
0
0
0
0
0
0
0
0
0
0
-0.0627795
0.0226978
0.107708
0.159701
0.191809
0.21096
0.220284
0.223101
0.221876
0.218027
0.212412
0.205601
0.197974
0.189792
0.181225
0.17239
0.163374
0.154237
0.145015
0.135732
0.12641
0.117067
0.107713
0.0983494
0.0889793
0.0796076
0.0702385
0.060871
0.0515032
0.0421364
0.0327716
0.0234085
0.0140459
0.00468471
3.12544
3.12409
3.11993
3.11333
3.10495
3.09522
3.08448
3.07309
3.0614
3.04975
3.03835
3.02741
3.01712
3.00769
2.99932
2.99221
2.98649
2.98249
2.98082
2.98183
2.98607
2.99435
3.00772
3.02744
3.05509
3.09256
3.14192
3.20441
3.2711
3.35199
0
0
0
0
0
0
0
0
0
0
0
-0.145738
-0.0306965
0.0783603
0.140377
0.177511
0.200814
0.213022
0.217855
0.218081
0.215289
0.21044
0.204184
0.19696
0.189067
0.180708
0.172025
0.163118
0.154057
0.144888
0.135645
0.126353
0.117029
0.107687
0.0983321
0.088969
0.0796023
0.070235
0.0608683
0.0515017
0.0421356
0.032771
0.0234079
0.014045
0.00468445
3.12425
3.12295
3.11891
3.11249
3.10432
3.0948
3.08426
3.07303
3.06149
3.04995
3.03866
3.0278
3.01758
3.00824
2.99995
2.99302
2.98752
2.98364
2.98222
2.98361
2.98836
2.99733
3.01162
3.0326
3.06198
3.1018
3.15435
3.22024
3.28385
3.53543
0
0
0
0
0
0
0
0
0
0
0
-0.17015
-0.0521805
0.0675671
0.133801
0.172448
0.197283
0.210525
0.21605
0.216771
0.214338
0.209754
0.203688
0.196603
0.18881
0.180524
0.171894
0.163025
0.15399
0.14484
0.135611
0.126329
0.117013
0.107675
0.0983236
0.0889633
0.0795986
0.0702324
0.0608662
0.0515002
0.0421347
0.0327703
0.0234073
0.0140443
0.00468415
3.12541
3.12407
3.1199
3.11331
3.10493
3.0952
3.08446
3.07306
3.06138
3.04973
3.03833
3.02738
3.01709
3.00767
2.9993
2.99219
2.98647
2.98247
2.9808
2.98181
2.98605
2.99433
3.0077
3.02742
3.05506
3.09254
3.1419
3.2044
3.27112
3.35205
0
0
0
0
0
0
0
0
0
0
0
-0.145788
-0.030727
0.0783358
0.140351
0.177485
0.200793
0.213002
0.217835
0.218062
0.21527
0.210422
0.204167
0.196943
0.189051
0.180694
0.172012
0.163106
0.154045
0.144877
0.135635
0.126344
0.117021
0.10768
0.0983253
0.0889629
0.0795969
0.0702302
0.0608641
0.0514981
0.0421328
0.0327688
0.0234063
0.014044
0.00468409
3.129
3.12753
3.12298
3.11579
3.10675
3.09638
3.08506
3.07315
3.06105
3.04905
3.03734
3.02614
3.01562
3.00595
2.99728
2.98976
2.98356
2.97907
2.97662
2.97653
2.97931
2.98561
2.99628
3.01235
3.03498
3.06556
3.10543
3.15465
3.19973
3.23077
0
0
0
0
0
0
0
0
0
0
0
-0.062852
0.022638
0.107657
0.159652
0.191763
0.210918
0.220243
0.22306
0.221836
0.217988
0.212375
0.205566
0.197941
0.18976
0.181195
0.172363
0.163349
0.154214
0.144993
0.135712
0.126392
0.11705
0.107698
0.0983359
0.0889672
0.0795968
0.0702289
0.0608628
0.0514962
0.0421308
0.0327672
0.0234054
0.014044
0.00468399
3.13527
3.13356
3.12826
3.12
3.10979
3.09831
3.08598
3.07322
3.06041
3.04781
3.03562
3.02401
3.01311
3.00306
2.99393
2.98586
2.97901
2.97365
2.96994
2.96816
2.96866
2.97191
2.97849
2.98904
3.00419
3.0246
3.05073
3.08257
3.1143
3.1358
3.38157
0
0
0
0
0
0
0
0
0
-0.0507295
0.0246263
0.0886447
0.151413
0.189585
0.213446
0.226644
0.231592
0.231225
0.227708
0.222206
0.215399
0.20773
0.199478
0.19085
0.181967
0.1729
0.163719
0.154473
0.145173
0.135832
0.126465
0.117095
0.107728
0.0983546
0.0889766
0.079601
0.0702315
0.0608631
0.0514939
0.0421278
0.0327644
0.0234028
0.0140421
0.00468267
3.14463
3.14253
3.13601
3.12601
3.11401
3.10086
3.08708
3.0731
3.05929
3.04587
3.03305
3.02091
3.00956
2.99903
2.98936
2.98065
2.973
2.96648
2.96118
2.95726
2.95491
2.95436
2.95588
2.95972
2.96592
2.97429
2.9842
2.994
3.00017
2.98572
2.91904
2.94042
0
0
0
0
0
0
0
0.139035
0.0986927
0.114022
0.164253
0.205562
0.228248
0.241437
0.246739
0.245906
0.241451
0.235037
0.227454
0.219147
0.210407
0.20138
0.192189
0.182918
0.173556
0.164163
0.154785
0.145395
0.135982
0.126566
0.117167
0.107775
0.0983756
0.0889831
0.0796018
0.0702268
0.0608547
0.0514859
0.0421206
0.0327581
0.0233977
0.0140387
0.00468082
3.15783
3.15508
3.14656
3.1339
3.11927
3.10383
3.0881
3.07251
3.05742
3.04301
3.02943
3.0167
3.00491
2.99395
2.98368
2.97428
2.96577
2.95796
2.95087
2.94459
2.9391
2.93429
2.93026
2.9269
2.92367
2.91957
2.91291
2.9004
2.87574
2.82876
2.7337
2.61543
2.29813
0
0
0
0
0
0.409352
0.210976
0.201586
0.218931
0.249292
0.26461
0.271759
0.272929
0.268922
0.261526
0.252583
0.242991
0.233118
0.223198
0.213252
0.203375
0.193621
0.18394
0.174296
0.164705
0.155154
0.145618
0.136114
0.126651
0.117215
0.107787
0.0983706
0.088972
0.079587
0.0702103
0.0608394
0.0514727
0.0421096
0.0327493
0.023391
0.0140342
0.00467842
3.17605
3.17214
3.16036
3.14365
3.12537
3.10688
3.08862
3.07097
3.05436
3.03896
3.02463
3.01123
2.99897
2.98769
2.977
2.96698
2.9576
2.94849
2.93955
2.93082
2.92219
2.91329
2.90374
2.89324
2.88096
2.86528
2.84399
2.81324
2.76644
2.69341
2.57542
2.41486
2.17545
1.98267
1.57245
1.17224
0.906229
0.646541
0.43206
0.365971
0.345526
0.339297
0.335217
0.325909
0.315655
0.303912
0.290593
0.276918
0.263642
0.25086
0.238595
0.227015
0.216046
0.205425
0.195036
0.184877
0.174938
0.16513
0.155396
0.14574
0.136173
0.12667
0.117206
0.10777
0.0983538
0.0889545
0.0795688
0.0701927
0.0608233
0.0514588
0.042098
0.0327401
0.0233841
0.0140298
0.00467611
3.20138
3.19521
3.17779
3.15499
3.13172
3.10928
3.08792
3.06777
3.04929
3.03295
3.01836
3.00475
2.99217
2.98073
2.96997
2.95943
2.94905
2.9387
2.92802
2.91683
2.90505
2.89219
2.87768
2.86111
2.84094
2.81532
2.78227
2.7381
2.67707
2.59113
2.46913
2.29672
2.08547
1.84225
1.53042
1.25333
1.02734
0.8209
0.657414
0.556794
0.490584
0.449171
0.413656
0.38273
0.355889
0.33196
0.310205
0.290656
0.273347
0.257832
0.243681
0.230468
0.218319
0.207061
0.196156
0.185568
0.17534
0.165352
0.155522
0.145815
0.13621
0.126678
0.117197
0.107754
0.0983361
0.0889361
0.0795503
0.070175
0.0608072
0.0514449
0.0420864
0.032731
0.0233775
0.0140257
0.0046742
3.2375
3.22672
3.19924
3.16725
3.13744
3.11017
3.08507
3.06211
3.04257
3.02557
3.0101
2.99645
2.9843
2.97317
2.96251
2.95181
2.94076
2.92934
2.91714
2.90385
2.88918
2.87282
2.85414
2.83237
2.80556
2.77212
2.73054
2.67735
2.60806
2.51715
2.39812
2.24119
2.04892
1.82845
1.58799
1.35968
1.15175
0.963964
0.809731
0.692661
0.602952
0.533277
0.47563
0.427835
0.388004
0.354497
0.326089
0.301923
0.281108
0.263199
0.24758
0.233296
0.220189
0.208173
0.196845
0.186032
0.175643
0.165542
0.155636
0.145879
0.136237
0.126681
0.117184
0.107732
0.0983101
0.0889099
0.0795257
0.0701528
0.0607879
0.0514286
0.0420732
0.0327208
0.0233701
0.0140213
0.00467228
3.28986
3.26898
3.22403
3.17994
3.14195
3.10863
3.07942
3.05349
3.03256
3.01547
3.00078
2.98782
2.97621
2.96554
2.95517
2.94453
2.93335
2.92115
2.90778
2.89292
2.87617
2.85704
2.83475
2.8083
2.77648
2.73786
2.69041
2.63137
2.55744
2.46483
2.34956
2.20754
2.03895
1.84971
1.64509
1.43844
1.24461
1.06839
0.914592
0.786223
0.680296
0.592816
0.520279
0.460531
0.411431
0.371072
0.337807
0.310242
0.286967
0.267207
0.250197
0.235115
0.221492
0.209032
0.197407
0.186398
0.175854
0.165646
0.155677
0.145884
0.136221
0.126652
0.117151
0.107696
0.0982757
0.0888787
0.0794981
0.0701291
0.0607679
0.0514122
0.0420602
0.0327108
0.0233631
0.0140169
0.0046706
3.36912
3.31875
3.24821
3.18962
3.14213
3.10135
3.06838
3.04244
3.02189
3.00537
2.99194
2.9804
2.9699
2.95992
2.94994
2.93942
2.92793
2.91521
2.90103
2.885
2.86667
2.84548
2.82068
2.79133
2.7563
2.71407
2.66276
2.60015
2.52369
2.43064
2.31843
2.1851
2.03103
1.85967
1.67534
1.48582
1.30342
1.13315
0.979079
0.844303
0.729063
0.631519
0.549822
0.482513
0.427489
0.382639
0.346043
0.316011
0.291076
0.270081
0.252115
0.236398
0.222361
0.20959
0.197754
0.186605
0.175963
0.16569
0.155683
0.14587
0.136195
0.126621
0.117117
0.107664
0.0982459
0.088852
0.079475
0.0701094
0.0607515
0.0513989
0.0420497
0.0327029
0.0233575
0.0140135
0.00466954
3.54606
3.39045
3.26179
3.18441
3.13126
3.08837
3.05478
3.03046
3.01224
2.99774
2.98582
2.97551
2.96601
2.95671
2.94711
2.93672
2.92518
2.9123
2.89776
2.88116
2.86205
2.83986
2.81385
2.78309
2.74639
2.70232
2.64914
2.58487
2.50732
2.41429
2.30379
2.17471
2.02755
1.86481
1.6903
1.51005
1.33264
1.16459
1.01008
0.87224
0.752456
0.650178
0.564303
0.493481
0.43562
0.388561
0.350289
0.319007
0.29317
0.271523
0.253072
0.237022
0.222762
0.209835
0.197892
0.186674
0.175986
0.165685
0.155662
0.145841
0.136164
0.12659
0.117088
0.107637
0.0982223
0.0888316
0.0794576
0.0700949
0.0607397
0.0513894
0.0420422
0.0326973
0.0233536
0.0140111
0.004669
3.92132
3.53167
3.28063
3.18283
3.12318
3.07672
3.04358
3.02104
3.00491
2.99241
2.98205
2.97289
2.96421
2.95549
2.94622
2.93601
2.92461
2.91177
2.8972
2.88053
2.86129
2.83891
2.81266
2.78157
2.74448
2.69995
2.6463
2.58161
2.5038
2.41079
2.30082
2.17296
2.02763
1.86721
1.69539
1.51746
1.34057
1.17242
1.01729
0.878304
0.75713
0.653714
0.567043
0.495533
0.437116
0.389629
0.35103
0.319497
0.293477
0.271701
0.253156
0.237044
0.222746
0.209796
0.197842
0.18662
0.175932
0.165634
0.155616
0.145801
0.136129
0.12656
0.117063
0.107616
0.0982048
0.0888173
0.079446
0.0700856
0.0607323
0.0513835
0.0420377
0.0326939
0.0233513
0.0140095
0.00466871
)
;

boundaryField
{
    ibCylinder
    {
        type            zeroGradientIb;
        patchType       immersedBoundary;
        setDeadValue    true;
        deadValue       0;
        value           nonuniform List<scalar> 0();
    }
    in
    {
        type            zeroGradient;
    }
    out
    {
        type            fixedValue;
        value           uniform 0;
    }
    top
    {
        type            zeroGradient;
    }
    bottom
    {
        type            zeroGradient;
    }
    frontAndBack
    {
        type            empty;
    }
}


// ************************************************************************* //
