/*--------------------------------*- C++ -*----------------------------------*\
| =========                 |                                                 |
| \\      /  F ield         | OpenFOAM: The Open Source CFD Toolbox           |
|  \\    /   O peration     | Version:  2206                                  |
|   \\  /    A nd           | Website:  www.openfoam.com                      |
|    \\/     M anipulation  |                                                 |
\*---------------------------------------------------------------------------*/
FoamFile
{
    version     2.0;
    format      ascii;
    arch        "LSB;label=32;scalar=64";
    class       surfaceScalarField;
    location    "0.4";
    object      phi;
}
// * * * * * * * * * * * * * * * * * * * * * * * * * * * * * * * * * * * * * //

dimensions      [0 3 -1 0 0 0 0];

oriented        oriented;

internalField   nonuniform List<scalar> 
3650
(
0.00275103
0.000448972
0.00224405
0.000506977
0.00181546
0.000428594
0.00148515
0.00033031
0.00124338
0.000241769
0.00107456
0.000168824
0.000958658
0.000115901
0.000880521
7.81374e-05
0.000828891
5.16307e-05
0.000795588
3.33038e-05
0.000775338
2.02494e-05
0.000764485
1.08541e-05
0.000760315
4.17009e-06
0.000760824
-5.08867e-07
0.000764583
-3.75776e-06
0.000771007
-6.42342e-06
0.000779897
-8.89036e-06
0.000791289
-1.13912e-05
0.000805459
-1.41698e-05
0.000822898
-1.74385e-05
0.000844285
-2.1387e-05
0.000870463
-2.61765e-05
0.000902385
-3.19229e-05
0.000941067
-3.8681e-05
0.000987523
-4.64558e-05
0.00104266
-5.51328e-05
0.0011071
-6.44441e-05
0.00118096
-7.38594e-05
0.00126341
-8.24496e-05
0.00135218
-8.87719e-05
0.00144294
-9.076e-05
0.0015288
-8.58654e-05
0.00160097
-7.21715e-05
0.00165022
-4.92431e-05
0.00166899
-1.8779e-05
0.00165637
1.26256e-05
0.00161148
4.4889e-05
0.00153992
7.15637e-05
0.00145015
8.97647e-05
0.00135191
9.82403e-05
0.00125395
9.79663e-05
0.00116244
9.15073e-05
0.00108098
8.14652e-05
0.00101125
6.97222e-05
0.000953405
5.78495e-05
0.000906553
4.68514e-05
0.000869311
3.7243e-05
0.000840118
2.91934e-05
0.000817469
2.26503e-05
0.000800042
1.74272e-05
0.000786732
1.33119e-05
0.000776616
1.01152e-05
0.000768957
7.65971e-06
0.000763176
5.78174e-06
0.000758824
4.35239e-06
0.000755555
3.26811e-06
0.000753109
2.44705e-06
0.000751282
1.82647e-06
0.000749922
1.35987e-06
0.000748912
1.01047e-06
0.000748162
7.49589e-07
0.000747607
5.54881e-07
0.000747198
4.09857e-07
0.000746896
3.01879e-07
0.000746674
2.21777e-07
0.000746512
1.62417e-07
0.000746393
1.18674e-07
0.000746306
8.64357e-08
0.000746244
6.28604e-08
0.000746198
4.55656e-08
0.000746165
3.30595e-08
0.000746141
2.39735e-08
0.000746123
1.75858e-08
0.00074611
1.32775e-08
1.09977e-08
0.00336543
0.000283546
0.0033515
0.000520903
0.00323389
0.000546201
0.00305859
0.000505611
0.00285593
0.000444432
0.0026573
0.000367455
0.0024844
0.000288797
0.00234405
0.000218497
0.00223586
0.000159815
0.00215601
0.000113155
0.00210023
7.60281e-05
0.0020638
4.72863e-05
0.00204218
2.57878e-05
0.00203183
9.84706e-06
0.00202994
-1.86477e-06
0.00203446
-1.09448e-05
0.00204434
-1.87742e-05
0.00205926
-2.63123e-05
0.00207925
-3.41534e-05
0.00210475
-4.294e-05
0.00213659
-5.32301e-05
0.00217592
-6.54993e-05
0.00222407
-8.00775e-05
0.00228252
-9.71354e-05
0.00235285
-0.000116785
0.00243655
-0.000138827
0.00253489
-0.000162782
0.00264863
-0.0001876
0.00277746
-0.000211285
0.00291923
-0.000230538
0.00306887
-0.000240404
0.00321676
-0.000233751
0.00334894
-0.000204356
0.00344971
-0.000150019
0.00350435
-7.34115e-05
0.00350502
1.19488e-05
0.00345129
9.86242e-05
0.00334753
0.000175318
0.00320606
0.000231244
0.00304343
0.000260862
0.00287595
0.000265456
0.00271664
0.000250813
0.00257377
0.000224338
0.00245113
0.000192364
0.00234934
0.000159635
0.00226702
0.000129174
0.00220171
0.000102553
0.0021506
8.03038e-05
0.00211097
6.22833e-05
0.00208045
4.79398e-05
0.00205711
3.66541e-05
0.00203932
2.79061e-05
0.00202579
2.11924e-05
0.00201552
1.60521e-05
0.00200774
1.21326e-05
0.00200186
9.1533e-06
0.00199741
6.88908e-06
0.00199407
5.17095e-06
0.00199156
3.87339e-06
0.00198967
2.89733e-06
0.00198825
2.16439e-06
0.00198719
1.61423e-06
0.0019864
1.20173e-06
0.00198581
8.92753e-07
0.00198537
6.61867e-07
0.00198504
4.89683e-07
0.0019848
3.61565e-07
0.00198462
2.6633e-07
0.00198449
1.95716e-07
0.00198439
1.43489e-07
0.00198432
1.05015e-07
0.00198427
7.69812e-08
0.00198423
5.63137e-08
0.0019842
4.26987e-08
3.13413e-08
0.0033265
0.000157041
0.00346244
0.000384964
0.00352967
0.000478975
0.00353864
0.000496639
0.00350382
0.000479262
0.00343589
0.000435379
0.00334736
0.000377328
0.00325032
0.000315536
0.00315762
0.000252522
0.00307728
0.000193494
0.00301262
0.000140685
0.0029638
9.61095e-05
0.00292917
6.04217e-05
0.00290683
3.21839e-05
0.00289488
1.00886e-05
0.0028913
-7.36556e-06
0.00289453
-2.20054e-05
0.00290389
-3.56748e-05
0.00291928
-4.95429e-05
0.00294083
-6.44922e-05
0.00296914
-8.15314e-05
0.00300521
-0.000101578
0.0030504
-0.000125259
0.00310609
-0.00015283
0.00317414
-0.00018483
0.00325657
-0.000221262
0.0033556
-0.000261808
0.00347336
-0.000305366
0.00361146
-0.000349386
0.00377
-0.000389075
0.00394565
-0.00041606
0.00412832
-0.000416415
0.00430164
-0.000377683
0.0044463
-0.000294676
0.00453839
-0.000165501
0.00456215
-1.18063e-05
0.00451945
0.000141316
0.00441299
0.000281786
0.00425593
0.000388297
0.00406855
0.000448242
0.0038713
0.000462708
0.00368159
0.000440528
0.0035111
0.000394825
0.00336523
0.000338234
0.00324492
0.000279941
0.00314842
0.000225674
0.00307258
0.0001784
0.00301375
0.00013913
0.00296845
0.000107589
0.00293377
8.26193e-05
0.0029074
6.30244e-05
0.00288737
4.79361e-05
0.00287214
3.64218e-05
0.00286058
2.76107e-05
0.00285181
2.09022e-05
0.00284516
1.58076e-05
0.00284012
1.19294e-05
0.00283631
8.97949e-06
0.00283343
6.74817e-06
0.00283127
5.06694e-06
0.00282963
3.80102e-06
0.0028284
2.84756e-06
0.00282747
2.12995e-06
0.00282677
1.59028e-06
0.00282625
1.18535e-06
0.00282585
8.82139e-07
0.00282556
6.55425e-07
0.00282534
4.85961e-07
0.00282518
3.59502e-07
0.00282505
2.65368e-07
0.00282496
1.95463e-07
0.0028249
1.44193e-07
0.00282485
1.05732e-07
0.00282481
8.01647e-08
5.64931e-08
0.00326312
9.39205e-05
0.00339034
0.00025775
0.00350618
0.000363131
0.00358735
0.000415469
0.00363777
0.000428845
0.00365911
0.00041404
0.00365286
0.000383575
0.00362757
0.000340825
0.0035903
0.000289795
0.00354676
0.000237031
0.00350241
0.000185032
0.00346212
0.000136404
0.00342876
9.37864e-05
0.0034034
5.75393e-05
0.00338608
2.74092e-05
0.00337608
2.63483e-06
0.00337279
-1.87114e-05
0.00337531
-3.81919e-05
0.00338365
-5.78891e-05
0.00339788
-7.87178e-05
0.00341843
-0.000102085
0.00344635
-0.000129498
0.00348305
-0.000161955
0.0035296
-0.000199386
0.00358782
-0.00024305
0.00366098
-0.000294415
0.00375268
-0.000353513
0.00386711
-0.000419793
0.00400898
-0.000491261
0.00418251
-0.000562599
0.00438743
-0.00062098
0.00460913
-0.000638123
0.00482463
-0.000593177
0.00501154
-0.000481592
0.00513545
-0.000289411
0.00517655
-5.28988e-05
0.00513995
0.000177917
0.0050274
0.000394327
0.00485386
0.000561846
0.00464393
0.000658171
0.00442176
0.000684873
0.00420879
0.000653506
0.00401915
0.000584467
0.00385905
0.000498325
0.00372913
0.000409864
0.00362676
0.000328041
0.00354781
0.000257356
0.0034877
0.000199235
0.003442
0.000153289
0.00340752
0.000117107
0.00338173
8.88173e-05
0.00336233
6.73337e-05
0.00334763
5.11161e-05
0.00333655
3.86968e-05
0.00332816
2.92908e-05
0.00332179
2.21784e-05
0.00331696
1.67558e-05
0.00331332
1.26237e-05
0.00331057
9.50155e-06
0.00330848
7.15147e-06
0.0033069
5.38004e-06
0.00330571
4.04297e-06
0.0033048
3.03388e-06
0.00330412
2.27271e-06
0.00330361
1.7e-06
0.00330322
1.27021e-06
0.00330293
9.47848e-07
0.00330271
7.05959e-07
0.00330254
5.24672e-07
0.00330242
3.89153e-07
0.00330232
2.88033e-07
0.00330225
2.13399e-07
0.0033022
1.56938e-07
0.00330216
1.19035e-07
8.23146e-08
0.00323335
6.05695e-05
0.00331559
0.000175513
0.00341549
0.000263227
0.00351108
0.000319884
0.00359046
0.000349465
0.00364832
0.000356184
0.00368577
0.000346121
0.00370588
0.00032072
0.00370989
0.000285783
0.00370178
0.000245136
0.00368674
0.000200081
0.00366782
0.000155316
0.0036477
0.000113916
0.00362905
7.61865e-05
0.00361387
4.25917e-05
0.00360301
1.34937e-05
0.0035965
-1.2206e-05
0.00359467
-3.63562e-05
0.00359753
-6.07526e-05
0.00360513
-8.63168e-05
0.00361767
-0.000114626
0.00363631
-0.000148137
0.00366264
-0.000188286
0.00369797
-0.000234709
0.00374499
-0.000290076
0.00380786
-0.000357287
0.00389105
-0.000436695
0.00400121
-0.000529961
0.00414728
-0.000637326
0.00433888
-0.000754199
0.00457623
-0.000858331
0.00482911
-0.000891004
0.00506922
-0.000833282
0.00526468
-0.000677061
0.00538163
-0.000406354
0.00541491
-8.618e-05
0.00537936
0.000213467
0.00527257
0.00050112
0.00509854
0.00073587
0.00488343
0.000873285
0.00465228
0.000916025
0.00442958
0.00087621
0.00423017
0.000783871
0.00406376
0.000664731
0.00393159
0.000542041
0.0038301
0.000429526
0.00375375
0.000333712
0.00369702
0.000255965
0.00365524
0.000195063
0.00362464
0.00014771
0.00360222
0.000111239
0.00358552
8.40382e-05
0.00357294
6.36902e-05
0.00356361
4.80289e-05
0.00355659
3.6311e-05
0.00355125
2.7518e-05
0.00354722
2.07817e-05
0.00354421
1.56381e-05
0.00354194
1.17706e-05
0.00354022
8.8717e-06
0.00353891
6.68787e-06
0.00353792
5.03707e-06
0.00353716
3.78839e-06
0.00353659
2.84354e-06
0.00353616
2.13147e-06
0.00353584
1.59714e-06
0.00353559
1.19555e-06
0.0035354
8.93304e-07
0.00353526
6.66002e-07
0.00353515
4.95651e-07
0.00353507
3.68155e-07
0.00353501
2.7353e-07
0.00353497
2.01667e-07
0.00353493
1.52865e-07
1.04355e-07
0.00321899
4.15844e-05
0.00327096
0.000123535
0.0033427
0.000191487
0.00342176
0.000240831
0.00349877
0.000272451
0.00356678
0.000288173
0.00362298
0.00028992
0.00366504
0.000278668
0.00369297
0.000257851
0.00370863
0.000229473
0.00371363
0.000195084
0.00371182
0.000157124
0.00370603
0.000119708
0.00369793
8.42879e-05
0.00368949
5.10309e-05
0.00368203
2.0957e-05
0.00367627
-6.44564e-06
0.00367286
-3.29534e-05
0.00367209
-5.99788e-05
0.00367417
-8.83947e-05
0.00367953
-0.000119991
0.00368952
-0.000158123
0.00370555
-0.000204314
0.00373003
-0.000259193
0.00376555
-0.000325592
0.00381532
-0.00040706
0.00388573
-0.000507102
0.00398558
-0.000629809
0.00412684
-0.00077859
0.00432285
-0.000950214
0.00455217
-0.00108765
0.0047639
-0.00110273
0.00493287
-0.00100225
0.00500957
-0.000753764
0.00494438
-0.000341164
0.00489434
-3.61378e-05
0.00490971
0.000198102
0.00490448
0.000506348
0.00485164
0.000788709
0.0047429
0.000982023
0.00458421
0.00107471
0.00440868
0.00105175
0.00423213
0.00096042
0.00407886
0.000818
0.00395789
0.000663003
0.00386737
0.000520052
0.00380145
0.000399629
0.00375426
0.000303153
0.00372094
0.000228382
0.00369739
0.000171259
0.00368061
0.000128025
0.00366869
9.59591e-05
0.00366024
7.21399e-05
0.00365404
5.42259e-05
0.00364935
4.10013e-05
0.00364572
3.11482e-05
0.00364299
2.35181e-05
0.00364095
1.76703e-05
0.00363944
1.32868e-05
0.00363828
1.00246e-05
0.0036374
7.56816e-06
0.00363673
5.70756e-06
0.00363622
4.29784e-06
0.00363584
3.22664e-06
0.00363555
2.41955e-06
0.00363533
1.81654e-06
0.00363517
1.363e-06
0.00363504
1.02072e-06
0.00363494
7.62457e-07
0.00363487
5.68692e-07
0.00363481
4.23419e-07
0.00363477
3.15126e-07
0.00363474
2.32677e-07
0.00363472
1.75879e-07
1.18784e-07
0.00321191
2.96761e-05
0.00324652
8.89241e-05
0.00329764
0.000140364
0.00335814
0.00018033
0.00342191
0.000208689
0.00348398
0.000226101
0.00354081
0.000233086
0.00358935
0.000230133
0.0036286
0.000218597
0.00365855
0.000199526
0.00367901
0.000174624
0.00369082
0.000145315
0.00369623
0.000114304
0.00369711
8.34038e-05
0.00369509
5.30523e-05
0.00369165
2.44022e-05
0.00368761
-2.41176e-06
0.00368368
-2.90197e-05
0.00368022
-5.65165e-05
0.00367793
-8.61057e-05
0.00367776
-0.000119822
0.00367997
-0.000160332
0.00368542
-0.000209768
0.00369657
-0.000270342
0.00371616
-0.000345178
0.00374755
-0.000438449
0.00379619
-0.000555746
0.00386969
-0.000703304
0.0039783
-0.000887206
0.00412841
-0.00110032
0.00424508
-0.00120432
0.00423622
-0.00109387
0.00310257
-0.000343683
0.00157426
1.80928e-18
0.000875662
1.19684e-18
0.000834114
8.72459e-19
0.00137964
8.18128e-19
0.00263544
6.48364e-19
0.00377328
0.000166465
0.00406358
0.000691724
0.00414288
0.00099541
0.00411238
0.00108225
0.00403897
0.00103382
0.00394832
0.000908658
0.00386776
0.000743563
0.0038066
0.000581212
0.00376321
0.000443013
0.00373351
0.000332856
0.00371369
0.000248196
0.00370057
0.000184382
0.00369175
0.000136848
0.00368591
0.000101795
0.00368212
7.5937e-05
0.00367966
5.66859e-05
0.00367807
4.25847e-05
0.0036769
3.23257e-05
0.003676
2.44116e-05
0.00367536
1.83166e-05
0.00367485
1.37921e-05
0.00367442
1.04512e-05
0.00367408
7.9074e-06
0.00367382
5.96772e-06
0.00367363
4.49241e-06
0.00367349
3.36913e-06
0.00367338
2.52816e-06
0.00367329
1.90104e-06
0.00367323
1.4286e-06
0.00367318
1.07146e-06
0.00367314
8.01219e-07
0.00367311
5.98219e-07
0.00367309
4.45948e-07
0.00367307
3.321e-07
0.00367306
2.45315e-07
0.00367305
1.84871e-07
1.23693e-07
0.00320827
2.14095e-05
0.00323292
6.42737e-05
0.00327068
0.000102606
0.00331733
0.000133677
0.003369
0.00015702
0.00342219
0.000172912
0.00347383
0.000181443
0.00352138
0.000182582
0.00356329
0.000176686
0.00359847
0.00016435
0.00362646
0.000146637
0.00364709
0.000124689
0.00366117
0.000100216
0.00366984
7.47385e-05
0.00367375
4.91434e-05
0.00367408
2.40696e-05
0.00367198
-3.08664e-07
0.00366798
-2.50248e-05
0.0036625
-5.1029e-05
0.00365607
-7.96748e-05
0.00364912
-0.00011288
0.00364189
-0.000153096
0.00363512
-0.000203003
0.00363038
-0.000265595
0.00362947
-0.000344267
0.00363445
-0.000443431
0.00364775
-0.000569049
0.00367093
-0.000726474
0.00370214
-0.000918418
0.00370689
-0.00110507
0.00355961
-0.00105704
0.00113615
-0.000122372
3.55656e-18
1.05528e-18
1.5282e-18
-4.86476e-20
8.78349e-19
-2.12946e-20
8.90436e-19
2.09544e-20
1.04986e-18
3.27892e-20
1.52651e-18
7.57976e-20
0.000899932
3.04745e-19
0.00307013
3.24966e-05
0.0034607
0.000604844
0.00362542
0.000917526
0.00369017
0.000969077
0.00370402
0.000894802
0.00369562
0.000751963
0.00368409
0.00059274
0.00367621
0.000450894
0.00367242
0.000336655
0.00367157
0.00024904
0.00367244
0.000183514
0.00367412
0.000135173
0.00367612
9.9794e-05
0.00367805
7.4005e-05
0.00367967
5.50615e-05
0.00368108
4.11781e-05
0.00368239
3.10137e-05
0.00368348
2.33254e-05
0.00368429
1.75093e-05
0.00368484
1.32363e-05
0.00368524
1.00498e-05
0.00368555
7.60527e-06
0.00368578
5.73369e-06
0.00368597
4.30238e-06
0.00368611
3.22711e-06
0.0036862
2.43484e-06
0.00368627
1.83631e-06
0.00368632
1.38156e-06
0.00368635
1.03709e-06
0.00368638
7.75456e-07
0.0036864
5.7917e-07
0.00368641
4.32051e-07
0.00368642
3.21796e-07
0.00368643
2.37823e-07
0.00368643
1.78733e-07
1.18547e-07
0.00320624
1.51745e-05
0.00322495
4.55596e-05
0.00325431
7.32476e-05
0.00329161
9.63788e-05
0.00333423
0.0001144
0.0033798
0.000127339
0.003426
0.000135242
0.00347063
0.00013795
0.00351197
0.000135347
0.00354869
0.000127635
0.00357992
0.000115403
0.0036051
9.95065e-05
0.00362422
8.11048e-05
0.00363762
6.1337e-05
0.00364576
4.1e-05
0.00364919
2.06428e-05
0.00364856
3.26074e-07
0.00364429
-2.07547e-05
0.00363662
-4.33623e-05
0.00362571
-6.87628e-05
0.00361155
-9.87245e-05
0.00359405
-0.000135595
0.00357328
-0.000182232
0.00354947
-0.000241779
0.00352272
-0.000317521
0.00349263
-0.000413337
0.00345677
-0.000533181
0.00340681
-0.000676519
0.00332246
-0.000834064
0.00316186
-0.000944473
0.000556593
-0.000261991
3.13644e-18
1.00731e-18
4.96709e-19
-2.38819e-20
1.89494e-20
5.42803e-22
4.12353e-20
1.56371e-21
8.76167e-20
2.36495e-21
2.42031e-19
1.24439e-21
7.0693e-19
1.51242e-20
1.39147e-18
1.65925e-20
0.000377504
1.14865e-19
0.00279938
8.24008e-05
0.0031104
0.0006065
0.00329113
0.000788346
0.00340612
0.000779814
0.00348067
0.000677413
0.00353068
0.000542728
0.00356666
0.000414914
0.00359414
0.00030917
0.00361571
0.000227479
0.00363269
0.000166532
0.003646
0.000121861
0.00365638
8.94152e-05
0.00366447
6.5919e-05
0.0036707
4.88334e-05
0.00367548
3.63956e-05
0.00367922
2.72763e-05
0.00368206
2.04793e-05
0.00368418
1.53893e-05
0.0036858
1.1618e-05
0.00368705
8.79978e-06
0.00368799
6.66098e-06
0.00368871
5.01435e-06
0.00368925
3.76245e-06
0.00368964
2.84337e-06
0.00368992
2.15334e-06
0.00369013
1.62215e-06
0.0036903
1.21733e-06
0.00369042
9.11576e-07
0.00369052
6.81397e-07
0.00369058
5.10263e-07
0.00369064
3.81259e-07
0.00369067
2.84076e-07
0.0036907
2.0998e-07
0.00369072
1.56674e-07
1.02821e-07
0.00320503
1.01472e-05
0.00322013
3.04557e-05
0.0032442
4.91819e-05
0.00327543
6.51508e-05
0.00331192
7.7907e-05
0.00335188
8.73768e-05
0.00339361
9.3517e-05
0.00343532
9.6235e-05
0.00347532
9.53456e-05
0.00351218
9.07824e-05
0.00354474
8.28395e-05
0.00357216
7.2087e-05
0.00359398
5.92848e-05
0.00361012
4.51984e-05
0.0036207
3.04181e-05
0.00362595
1.53909e-05
0.00362601
2.68035e-07
0.00362106
-1.58025e-05
0.00361102
-3.33226e-05
0.00359561
-5.33482e-05
0.00357425
-7.7373e-05
0.00354611
-0.000107452
0.00351007
-0.000146189
0.00346468
-0.000196383
0.00340802
-0.000260863
0.00333722
-0.000342528
0.00324581
-0.00044177
0.00311732
-0.000548033
0.0029293
-0.000646039
0.00159275
-0.000521601
3.63254e-18
1.25588e-18
4.19201e-19
-2.87042e-20
4.79225e-21
2.24449e-22
1.0626e-20
3.05198e-22
1.86258e-20
7.01325e-22
3.89535e-20
5.24717e-22
9.48208e-20
1.54998e-21
2.19615e-19
4.64398e-21
6.60992e-19
1.15834e-20
1.49359e-18
3.26933e-20
0.00124948
4.40422e-20
0.00269124
0.000242098
0.00293185
0.000547731
0.00312014
0.000591527
0.00326568
0.000531876
0.00337458
0.000433825
0.00345507
0.00033442
0.00351478
0.000249465
0.00355921
0.000183048
0.00359234
0.000133399
0.00361708
9.71219e-05
0.00363559
7.0906e-05
0.00364948
5.20275e-05
0.00365991
3.84015e-05
0.00366778
2.85261e-05
0.00367375
2.13105e-05
0.00367825
1.5976e-05
0.00368164
1.20061e-05
0.0036842
9.05408e-06
0.00368615
6.84606e-06
0.00368764
5.17743e-06
0.00368875
3.90519e-06
0.00368957
2.93679e-06
0.0036902
2.21746e-06
0.00369067
1.67796e-06
0.00369103
1.26555e-06
0.0036913
9.47713e-07
0.0036915
7.09996e-07
0.00369165
5.34572e-07
0.00369176
4.00677e-07
0.00369184
2.98417e-07
0.0036919
2.21589e-07
0.00369195
1.6286e-07
0.00369199
1.19962e-07
7.80681e-08
0.00320431
5.8373e-06
0.00321726
1.75094e-05
0.00323809
2.83525e-05
0.00326552
3.77188e-05
0.00329811
4.53188e-05
0.00333441
5.10733e-05
0.003373
5.4931e-05
0.00341242
5.68145e-05
0.00345114
5.6621e-05
0.00348767
5.42515e-05
0.00352072
4.97962e-05
0.00354922
4.35809e-05
0.00357247
3.60413e-05
0.00359006
2.76046e-05
0.00360187
1.86092e-05
0.00360799
9.2757e-06
0.00360819
6.09676e-08
0.00360237
-9.97391e-06
0.0035901
-2.10552e-05
0.00357066
-3.39071e-05
0.00354282
-4.9537e-05
0.00350476
-6.93871e-05
0.00345388
-9.53059e-05
0.00338674
-0.000129238
0.00329907
-0.000173194
0.0031854
-0.000228851
0.00303745
-0.000293826
0.00284448
-0.000355059
0.00260584
-0.000407393
5.73956e-18
-0.0001602
1.05962e-18
-8.77661e-20
1.47542e-21
-2.73219e-23
3.16706e-21
-1.34514e-23
6.62514e-21
2.77273e-22
1.15334e-20
-2.08631e-23
2.66164e-20
-6.45248e-25
5.85331e-20
1.02473e-21
1.31005e-19
1.67683e-21
3.41896e-19
2.91199e-21
9.69069e-19
2.89327e-21
2.0298e-18
1.56366e-20
0.0024283
5.82339e-05
0.00266565
0.000310379
0.00289335
0.000363828
0.00308793
0.000337293
0.00324225
0.000279507
0.00335973
0.000216944
0.00344711
0.000162086
0.00351134
0.000118812
0.00355838
8.63606e-05
0.00359284
6.26647e-05
0.00361816
4.55895e-05
0.00363684
3.33412e-05
0.0036507
2.45416e-05
0.00366104
1.81867e-05
0.00366879
1.3559e-05
0.00367462
1.01534e-05
0.00367899
7.62803e-06
0.0036823
5.74902e-06
0.0036848
4.34328e-06
0.0036867
3.28307e-06
0.00368812
2.47817e-06
0.00368919
1.86725e-06
0.00369
1.40931e-06
0.00369061
1.06507e-06
0.00369108
8.03242e-07
0.00369142
6.02969e-07
0.00369168
4.51384e-07
0.00369187
3.39018e-07
0.00369202
2.54109e-07
0.00369213
1.88795e-07
0.00369221
1.39132e-07
0.00369227
1.01267e-07
0.00369232
7.41501e-08
4.74837e-08
0.00320392
1.91702e-06
0.00321571
5.72241e-06
0.00323478
9.27946e-06
0.00326012
1.23775e-05
0.00329054
1.49016e-05
0.00332478
1.68283e-05
0.00336158
1.81383e-05
0.00339959
1.88005e-05
0.00343743
1.87828e-05
0.00347364
1.8046e-05
0.00350683
1.66071e-05
0.00353584
1.45704e-05
0.0035598
1.20817e-05
0.00357813
9.27634e-06
0.00359046
6.27033e-06
0.00359671
3.02564e-06
0.00359684
-6.24254e-08
0.00359029
-3.42826e-06
0.00357644
-7.20138e-06
0.00355416
-1.16313e-05
0.00352168
-1.7055e-05
0.00347628
-2.39868e-05
0.00341407
-3.30876e-05
0.00332986
-4.50209e-05
0.00321711
-6.04483e-05
0.00306809
-7.98237e-05
0.00287626
-0.000101989
0.00264089
-0.000119691
0.00235873
-0.00012523
4.45004e-18
-4.59116e-05
7.98951e-19
-1.28851e-20
1.19073e-21
-4.58221e-24
2.84338e-21
1.73896e-22
4.95296e-21
-8.6097e-24
9.84137e-21
-1.51154e-24
2.18907e-20
5.71552e-22
3.98737e-20
6.99614e-23
8.86265e-20
2.13523e-22
2.25205e-19
7.3122e-22
6.79509e-19
2.56641e-21
1.64003e-18
-8.79281e-22
0.00229454
8.1363e-06
0.00250632
9.85927e-05
0.00274864
0.000121503
0.00297105
0.00011489
0.00315408
9.64716e-05
0.00329584
7.51889e-05
0.00340172
5.62054e-05
0.00347935
4.11808e-05
0.00353581
2.98947e-05
0.00357682
2.16559e-05
0.00360669
1.57251e-05
0.00362855
1.14809e-05
0.00364465
8.43884e-06
0.00365659
6.24668e-06
0.0036655
4.65342e-06
0.00367217
3.48343e-06
0.00367718
2.61717e-06
0.00368095
1.97252e-06
0.00368381
1.49018e-06
0.00368596
1.12662e-06
0.00368759
8.51007e-07
0.00368881
6.41943e-07
0.00368974
4.84539e-07
0.00369044
3.65871e-07
0.00369097
2.75644e-07
0.00369136
2.06738e-07
0.00369166
1.54401e-07
0.00369188
1.15254e-07
0.00369205
8.55885e-08
0.00369218
6.2715e-08
0.00369227
4.50803e-08
0.00369234
3.13322e-08
0.00369239
2.11827e-08
1.12041e-08
0.00320379
-1.87429e-06
0.00321519
-5.67424e-06
0.00323369
-9.21958e-06
0.00325838
-1.23115e-05
0.00328811
-1.48315e-05
0.0033217
-1.67593e-05
0.00335791
-1.80756e-05
0.00339546
-1.87497e-05
0.00343299
-1.87483e-05
0.00346907
-1.80306e-05
0.00350229
-1.6611e-05
0.00353145
-1.45916e-05
0.00355565
-1.21165e-05
0.00357425
-9.31986e-06
0.00358683
-6.31779e-06
0.00359293
-3.07208e-06
0.00359285
2.01479e-08
0.00358603
3.39555e-06
0.00357164
7.18143e-06
0.00354838
1.16295e-05
0.00351425
1.70772e-05
0.00346623
2.404e-05
0.00339997
3.31762e-05
0.0033098
4.51501e-05
0.00318875
6.06032e-05
0.00302901
7.992e-05
0.00282514
0.000101887
0.00258613
0.000119319
0.00233618
0.00012472
3.89476e-18
4.58309e-05
4.26032e-19
1.2762e-20
1.33972e-21
4.5925e-24
2.12777e-21
-1.73831e-22
4.3542e-21
8.70275e-24
1.00835e-20
4.02078e-24
1.75779e-20
-7.13486e-22
3.70957e-20
-7.42204e-23
8.31672e-20
-2.14533e-22
1.87168e-19
-7.3089e-22
5.62019e-19
-2.56535e-21
1.50397e-18
8.90127e-22
0.0022607
-8.12247e-06
0.00245779
-9.85065e-05
0.00270067
-0.000121376
0.00293031
-0.000114743
0.0031231
-9.63286e-05
0.00327339
-7.5094e-05
0.00338576
-5.61652e-05
0.00346811
-4.11746e-05
0.00352791
-2.99029e-05
0.00357124
-2.16685e-05
0.0036027
-1.57366e-05
0.00362567
-1.14895e-05
0.00364255
-8.44356e-06
0.00365504
-6.2475e-06
0.00366435
-4.65082e-06
0.00367131
-3.47848e-06
0.00367654
-2.6108e-06
0.00368048
-1.96565e-06
0.00368345
-1.48324e-06
0.0036857
-1.11992e-06
0.00368739
-8.44746e-07
0.00368867
-6.36491e-07
0.00368963
-4.80222e-07
0.00369036
-3.62978e-07
0.00369091
-2.74288e-07
0.00369133
-2.06881e-07
0.00369164
-1.56039e-07
0.00369187
-1.18347e-07
0.00369205
-9.02666e-08
0.00369218
-6.91016e-08
0.00369228
-5.33696e-08
0.00369235
-4.16844e-08
0.0036924
-3.35207e-08
-2.61891e-08
0.00320392
-5.79457e-06
0.00321571
-1.74613e-05
0.00323478
-2.82923e-05
0.00326012
-3.76532e-05
0.00329054
-4.52499e-05
0.00332479
-5.1006e-05
0.00336158
-5.48705e-05
0.0033996
-5.67657e-05
0.00343744
-5.65882e-05
0.00347365
-5.42371e-05
0.00350684
-4.98004e-05
0.00353585
-4.3602e-05
0.00355981
-3.60756e-05
0.00357813
-2.76478e-05
0.00359047
-1.86565e-05
0.00359672
-9.32323e-06
0.00359685
-1.03758e-07
0.0035903
9.93931e-06
0.00357645
2.10324e-05
0.00355418
3.38999e-05
0.00352171
4.95507e-05
0.00347633
6.94259e-05
0.00341413
9.53759e-05
0.00332994
0.000129345
0.00321722
0.000173323
0.00306822
0.000228923
0.00287639
0.000293725
0.00264097
0.000354744
0.0023587
0.000406992
4.45014e-18
0.000160089
7.98991e-19
8.76825e-20
1.19071e-21
2.73329e-23
2.84074e-21
1.34709e-23
4.92612e-21
-2.76782e-22
9.70879e-21
2.28853e-23
2.18494e-20
6.1848e-24
3.98737e-20
-1.0249e-21
8.86286e-20
-1.67562e-21
2.25218e-19
-2.90969e-21
6.79554e-19
-2.88692e-21
1.6401e-18
-1.56014e-20
0.00229452
-5.82061e-05
0.00250627
-0.000310252
0.00274857
-0.000363681
0.00297098
-0.000337151
0.00315404
-0.000279394
0.00329583
-0.00021688
0.00340172
-0.00016206
0.00347936
-0.00011881
0.00353582
-8.63683e-05
0.00357683
-6.26753e-05
0.00360669
-4.55988e-05
0.00362855
-3.33477e-05
0.00364465
-2.45446e-05
0.00365659
-1.81864e-05
0.0036655
-1.35557e-05
0.00367216
-1.01481e-05
0.00367717
-7.62147e-06
0.00368095
-5.74203e-06
0.0036838
-4.33629e-06
0.00368596
-3.27637e-06
0.00368759
-2.47199e-06
0.00368881
-1.86192e-06
0.00368974
-1.40512e-06
0.00369044
-1.0623e-06
0.00369096
-8.01968e-07
0.00369136
-6.03211e-07
0.00369166
-4.53093e-07
0.00369188
-3.42192e-07
0.00369205
-2.58825e-07
0.00369218
-1.95177e-07
0.00369227
-1.47387e-07
0.00369234
-1.11525e-07
0.00369239
-8.63373e-08
-6.21735e-08
0.00320431
-1.01054e-05
0.00321726
-3.04083e-05
0.00323809
-4.91225e-05
0.00326552
-6.50865e-05
0.00329811
-7.78402e-05
0.00333442
-8.73124e-05
0.00337301
-9.34598e-05
0.00341243
-9.61895e-05
0.00345116
-9.53153e-05
0.00348769
-9.07694e-05
0.00352074
-8.28443e-05
0.00354924
-7.21079e-05
0.00357249
-5.93186e-05
0.00359008
-4.52409e-05
0.00360189
-3.04653e-05
0.003608
-1.54388e-05
0.00360821
-3.11773e-07
0.00360238
1.57656e-05
0.00359012
3.32951e-05
0.00357069
5.33327e-05
0.00354287
7.73719e-05
0.00350484
0.000107465
0.003454
0.000146217
0.00338692
0.000196428
0.00329934
0.000260902
0.00318576
0.000342507
0.00303785
0.000441641
0.00284477
0.000547819
0.00260591
0.000645858
5.73982e-18
0.000521563
1.05973e-18
-1.25587e-18
1.47556e-21
2.87004e-20
3.16659e-21
-2.24398e-22
6.62324e-21
-3.05167e-22
1.15341e-20
-7.01027e-22
2.66159e-20
-5.22199e-22
5.85357e-20
-1.54861e-21
1.31011e-19
-4.64063e-21
3.41917e-19
-1.15753e-20
9.69139e-19
-3.26765e-20
2.02988e-18
-4.39671e-20
0.00242826
-0.000242024
0.00266558
-0.000547574
0.00289328
-0.000591379
0.00308788
-0.000531753
0.00324224
-0.000433755
0.00335975
-0.000334388
0.00344714
-0.000249451
0.00351137
-0.000183046
0.00355841
-0.000133402
0.00359286
-9.71262e-05
0.00361817
-7.09095e-05
0.00363685
-5.2029e-05
0.00365071
-3.84008e-05
0.00366104
-2.85231e-05
0.00366879
-2.13056e-05
0.00367461
-1.59697e-05
0.00367899
-1.1999e-05
0.0036823
-9.04673e-06
0.0036848
-6.83892e-06
0.00368669
-5.17069e-06
0.00368812
-3.89914e-06
0.00368919
-2.93169e-06
0.00369
-2.21351e-06
0.00369061
-1.6754e-06
0.00369107
-1.26444e-06
0.00369142
-9.48091e-07
0.00369168
-7.11844e-07
0.00369187
-5.37875e-07
0.00369202
-4.05458e-07
0.00369213
-3.04806e-07
0.00369221
-2.29733e-07
0.00369227
-1.72878e-07
0.00369232
-1.31869e-07
-9.22908e-08
0.00320503
-1.51349e-05
0.00322014
-4.55143e-05
0.0032442
-7.31912e-05
0.00327544
-9.63176e-05
0.00331193
-0.000114337
0.0033519
-0.000127279
0.00339363
-0.000135189
0.00343535
-0.000137908
0.00347535
-0.000135319
0.0035122
-0.000127624
0.00354477
-0.000115409
0.00357219
-9.95269e-05
0.00359401
-8.11377e-05
0.00361014
-6.13784e-05
0.00362072
-4.10462e-05
0.00362598
-2.06901e-05
0.00362603
-3.70239e-07
0.00362108
2.07159e-05
0.00361105
4.33302e-05
0.00359564
6.87389e-05
0.00357431
9.87082e-05
0.0035462
0.000135583
0.0035102
0.000182218
0.00346487
0.000241757
0.00340831
0.000317469
0.00333759
0.000413222
0.00324623
0.000533008
0.00311768
0.000676362
0.00292952
0.00083403
0.00159279
0.000944607
3.63263e-18
0.000262034
4.19245e-19
-1.0072e-18
4.7963e-21
2.38998e-20
1.06439e-20
-5.43853e-22
1.86346e-20
-1.56317e-21
3.89579e-20
-2.36348e-21
9.4827e-20
-1.24189e-21
2.19641e-19
-1.51104e-20
6.61122e-19
-1.65743e-20
1.49371e-18
-1.14723e-19
0.00124947
-8.2387e-05
0.00269118
-0.000606383
0.00293181
-0.000788206
0.00312013
-0.000779697
0.00326571
-0.000677332
0.00337464
-0.000542685
0.00345514
-0.000414891
0.00351484
-0.000309153
0.00355926
-0.000227466
0.00359238
-0.000166522
0.00361711
-0.000121853
0.00363561
-8.9409e-05
0.00364949
-6.59128e-05
0.00365992
-4.8827e-05
0.00366779
-3.63887e-05
0.00367375
-2.72689e-05
0.00367825
-2.04715e-05
0.00368163
-1.53814e-05
0.0036842
-1.16101e-05
0.00368615
-8.79235e-06
0.00368763
-6.65412e-06
0.00368874
-5.00844e-06
0.00368957
-3.75767e-06
0.00369019
-2.83973e-06
0.00369067
-2.15103e-06
0.00369103
-1.62124e-06
0.0036913
-1.21783e-06
0.0036915
-9.13572e-07
0.00369164
-6.84828e-07
0.00369175
-5.15146e-07
0.00369184
-3.87659e-07
0.0036919
-2.92088e-07
0.00369195
-2.19657e-07
0.00369198
-1.68059e-07
-1.16329e-07
0.00320624
-2.13732e-05
0.00322496
-6.42322e-05
0.00325432
-0.000102554
0.00329162
-0.000133621
0.00333425
-0.000156961
0.00337983
-0.000172856
0.00342603
-0.000181394
0.00347067
-0.000182544
0.00351201
-0.000176662
0.00354873
-0.00016434
0.00357996
-0.000146642
0.00360514
-0.000124709
0.00362425
-0.000100248
0.00363765
-7.4778e-05
0.00364579
-4.91874e-05
0.00364922
-2.41149e-05
0.00364858
2.65646e-07
0.00364431
2.49858e-05
0.00363665
5.09946e-05
0.00362574
7.96453e-05
0.0036116
0.000112854
0.00359411
0.000153069
0.00357337
0.000202966
0.00354959
0.000265539
0.00352288
0.000344175
0.00349282
0.000443286
0.00345696
0.000568868
0.00340699
0.000726336
0.0033226
0.000918417
0.00316199
0.00110522
0.000556605
0.0010572
3.13658e-18
0.000122384
4.96876e-19
-1.05519e-18
1.89558e-20
4.87291e-20
4.12455e-20
2.129e-20
8.76301e-20
-2.0956e-20
2.4207e-19
-3.27881e-20
7.07068e-19
-7.57743e-20
1.3915e-18
-3.04607e-19
0.00037751
-3.2503e-05
0.00279934
-0.000604784
0.00311037
-0.00091742
0.00329115
-0.00096898
0.00340618
-0.000894726
0.00348076
-0.000751919
0.00353078
-0.000592705
0.00356675
-0.000450861
0.00359422
-0.000336623
0.00361577
-0.000249012
0.00363274
-0.000183489
0.00364604
-0.000135153
0.0036564
-9.9777e-05
0.00366448
-7.39905e-05
0.0036707
-5.50489e-05
0.00367548
-4.11668e-05
0.00367922