/*--------------------------------*- C++ -*----------------------------------*\
| =========                 |                                                 |
| \\      /  F ield         | OpenFOAM: The Open Source CFD Toolbox           |
|  \\    /   O peration     | Version:  2206                                  |
|   \\  /    A nd           | Website:  www.openfoam.com                      |
|    \\/     M anipulation  |                                                 |
\*---------------------------------------------------------------------------*/
FoamFile
{
    version     2.0;
    format      ascii;
    arch        "LSB;label=32;scalar=64";
    class       surfaceVectorField;
    location    "0.4";
    object      Uf;
}
// * * * * * * * * * * * * * * * * * * * * * * * * * * * * * * * * * * * * * //

dimensions      [0 1 -1 0 0 0 0];

internalField   nonuniform List<vector> 
3650
(
(0.859696 0.0532853 0)
(0.903193 0.140304 0)
(0.701266 0.0846351 0)
(0.900216 0.15843 0)
(0.567331 0.0660605 0)
(0.84311 0.133936 0)
(0.464109 0.0365956 0)
(0.752294 0.103222 0)
(0.388557 0.0188201 0)
(0.672641 0.0755527 0)
(0.335799 0.0100319 0)
(0.60845 0.0527576 0)
(0.29958 0.00524325 0)
(0.558134 0.036219 0)
(0.275163 0.00257124 0)
(0.518898 0.0244179 0)
(0.259028 0.00112693 0)
(0.489578 0.0161346 0)
(0.248621 0.000349694 0)
(0.468577 0.0104074 0)
(0.242293 -9.93684e-05 0)
(0.454109 0.00632792 0)
(0.238902 -0.00037692 0)
(0.44475 0.0033919 0)
(0.237598 -0.000554571 0)
(0.439268 0.00130315 0)
(0.237758 -0.000695301 0)
(0.436656 -0.000159021 0)
(0.238932 -0.000837555 0)
(0.436168 -0.0011743 0)
(0.24094 -0.000981881 0)
(0.437206 -0.00200732 0)
(0.243718 -0.00114746 0)
(0.439565 -0.00277824 0)
(0.247278 -0.0013613 0)
(0.443102 -0.00355974 0)
(0.251706 -0.00163671 0)
(0.447811 -0.00442805 0)
(0.257156 -0.00198442 0)
(0.4538 -0.00544954 0)
(0.263839 -0.00241661 0)
(0.461266 -0.00668343 0)
(0.27202 -0.00294365 0)
(0.470483 -0.00818015 0)
(0.281995 -0.00357121 0)
(0.481791 -0.00997592 0)
(0.294083 -0.00429981 0)
(0.495567 -0.0120878 0)
(0.308601 -0.0051181 0)
(0.512213 -0.0145174 0)
(0.32583 -0.00599472 0)
(0.532122 -0.017229 0)
(0.345969 -0.0068721 0)
(0.555643 -0.0201388 0)
(0.36905 -0.00765383 0)
(0.583012 -0.0230811 0)
(0.394815 -0.00819359 0)
(0.614237 -0.0257655 0)
(0.422556 -0.00829016 0)
(0.648922 -0.0277412 0)
(0.450918 -0.00771053 0)
(0.686026 -0.0283625 0)
(0.477751 -0.00629364 0)
(0.72366 -0.0268329 0)
(0.500304 -0.00406615 0)
(0.758626 -0.0225536 0)
(0.515692 -0.00127036 0)
(0.787211 -0.0153885 0)
(0.521561 0.00176833 0)
(0.805 -0.00586843 0)
(0.517615 0.00479431 0)
(0.809829 0.00394551 0)
(0.503587 0.00726633 0)
(0.801503 0.0140278 0)
(0.481224 0.00878026 0)
(0.779606 0.0223636 0)
(0.453173 0.00939718 0)
(0.747023 0.0280515 0)
(0.422473 0.00924048 0)
(0.707746 0.0307001 0)
(0.391859 0.00855424 0)
(0.66587 0.0306145 0)
(0.363263 0.00758832 0)
(0.62497 0.028596 0)
(0.337805 0.00649933 0)
(0.587635 0.0254579 0)
(0.316017 0.00539764 0)
(0.555004 0.0217882 0)
(0.297939 0.00437319 0)
(0.527545 0.018078 0)
(0.283298 0.00347471 0)
(0.505091 0.0146411 0)
(0.27166 0.00271887 0)
(0.487125 0.0116384 0)
(0.262537 0.00210245 0)
(0.472975 0.00912293 0)
(0.255459 0.00161024 0)
(0.461957 0.00707822 0)
(0.250013 0.00122256 0)
(0.453448 0.00544601 0)
(0.245854 0.000921526 0)
(0.446922 0.00415996 0)
(0.242693 0.000691168 0)
(0.441945 0.003161 0)
(0.240299 0.000516317 0)
(0.438162 0.00239366 0)
(0.238492 0.000384176 0)
(0.435293 0.00180679 0)
(0.237132 0.000284821 0)
(0.433122 0.00136012 0)
(0.236111 0.000210347 0)
(0.431483 0.00102129 0)
(0.235346 0.000154664 0)
(0.430248 0.000764704 0)
(0.234776 0.000113235 0)
(0.42932 0.000570773 0)
(0.234351 8.26144e-05 0)
(0.428625 0.000424961 0)
(0.234035 6.00805e-05 0)
(0.428104 0.000315771 0)
(0.233801 4.35402e-05 0)
(0.427715 0.000234247 0)
(0.233627 3.14216e-05 0)
(0.427424 0.0001734 0)
(0.233499 2.2563e-05 0)
(0.427208 0.00012808 0)
(0.233405 1.60988e-05 0)
(0.427047 9.43373e-05 0)
(0.233336 1.14059e-05 0)
(0.426928 6.93053e-05 0)
(0.233285 8.02327e-06 0)
(0.426839 5.07554e-05 0)
(0.233248 5.60997e-06 0)
(0.426774 3.70858e-05 0)
(0.233221 3.90374e-06 0)
(0.426726 2.70112e-05 0)
(0.233201 2.70576e-06 0)
(0.42669 1.96439e-05 0)
(0.233187 1.87088e-06 0)
(0.426664 1.42392e-05 0)
(0.233177 1.29168e-06 0)
(0.426645 1.03311e-05 0)
(0.233169 9.16579e-07 0)
(0.426631 7.49173e-06 0)
(0.233164 6.58238e-07 0)
(0.426621 5.49558e-06 0)
(0.233159 6.36521e-07 0)
(0.426614 4.14922e-06 0)
(0.426606 3.43679e-06 0)
(1.0517 0.154983 0)
(1.01329 0.0886081 0)
(1.04734 0.183108 0)
(1.05549 0.162782 0)
(1.01059 0.167957 0)
(1.06748 0.170688 0)
(0.95581 0.142679 0)
(1.04929 0.158004 0)
(0.892478 0.111658 0)
(1.01446 0.138885 0)
(0.830406 0.0816081 0)
(0.972918 0.11483 0)
(0.776376 0.0575943 0)
(0.931265 0.0902492 0)
(0.732514 0.0396486 0)
(0.891767 0.0682802 0)
(0.698707 0.026546 0)
(0.856982 0.0499422 0)
(0.673753 0.0170184 0)
(0.82876 0.0353609 0)
(0.656323 0.010081 0)
(0.806944 0.0237588 0)
(0.644938 0.00509888 0)
(0.791057 0.014777 0)
(0.638182 0.00158238 0)
(0.780225 0.00805868 0)
(0.634946 -0.000855009 0)
(0.773455 0.00307721 0)
(0.634355 -0.00263919 0)
(0.770004 -0.000582741 0)
(0.635768 -0.00417649 0)
(0.769098 -0.00342024 0)
(0.638857 -0.00564152 0)
(0.770257 -0.00586693 0)
(0.64352 -0.00715143 0)
(0.773214 -0.0082226 0)
(0.649765 -0.00885893 0)
(0.777876 -0.0106729 0)
(0.657734 -0.0108846 0)
(0.784288 -0.0134187 0)
(0.667685 -0.013325 0)
(0.792611 -0.0166344 0)
(0.679973 -0.0162524 0)
(0.803127 -0.0204685 0)
(0.695022 -0.0197087 0)
(0.816223 -0.0250242 0)
(0.713289 -0.0237111 0)
(0.832344 -0.0303548 0)
(0.735267 -0.0282351 0)
(0.85197 -0.0364955 0)
(0.761422 -0.0331795 0)
(0.875649 -0.0433835 0)
(0.792152 -0.0383276 0)
(0.90394 -0.0508693 0)
(0.827696 -0.0432871 0)
(0.937361 -0.058625 0)
(0.867957 -0.0474223 0)
(0.976277 -0.0660265 0)
(0.912258 -0.0497955 0)
(1.02069 -0.0720431 0)
(0.959022 -0.0491311 0)
(1.06991 -0.0751264 0)
(1.00524 -0.044139 0)
(1.12189 -0.0730473 0)
(1.04654 -0.0341313 0)
(1.17274 -0.0638611 0)
(1.07804 -0.0194786 0)
(1.21711 -0.0468809 0)
(1.09511 -0.00233068 0)
(1.24881 -0.0229411 0)
(1.09532 0.0154501 0)
(1.26253 0.003734 0)
(1.07853 0.0320319 0)
(1.25727 0.0308201 0)
(1.0461 0.0448516 0)
(1.23274 0.0547868 0)
(1.00189 0.0525788 0)
(1.19187 0.0722638 0)
(0.951073 0.0550765 0)
(1.13988 0.0815193 0)
(0.898733 0.0532751 0)
(1.0828 0.082955 0)
(0.84895 0.0486148 0)
(1.02597 0.0783791 0)
(0.804302 0.0424441 0)
(0.973798 0.0701057 0)
(0.765977 0.0357824 0)
(0.928185 0.0601138 0)
(0.734169 0.0293444 0)
(0.889904 0.0498858 0)
(0.708443 0.0235537 0)
(0.858755 0.040367 0)
(0.688034 0.0186012 0)
(0.833978 0.0320478 0)
(0.672062 0.0145159 0)
(0.814586 0.025095 0)
(0.659677 0.0112256 0)
(0.799559 0.0194635 0)
(0.650142 0.00861517 0)
(0.78799 0.0149812 0)
(0.642848 0.00657197 0)
(0.779143 0.0114544 0)
(0.637288 0.00499297 0)
(0.77241 0.00872066 0)
(0.63306 0.00378154 0)
(0.767289 0.00662261 0)
(0.62985 0.00285593 0)
(0.763398 0.00501628 0)
(0.627419 0.00215163 0)
(0.760447 0.00379145 0)
(0.62558 0.00161696 0)
(0.75821 0.0028604 0)
(0.624192 0.0012117 0)
(0.756517 0.00215284 0)
(0.623147 0.000905603 0)
(0.755238 0.00161592 0)
(0.622361 0.00067545 0)
(0.754275 0.00121044 0)
(0.621772 0.000502944 0)
(0.753549 0.000905415 0)
(0.621329 0.000373837 0)
(0.753003 0.000676371 0)
(0.620998 0.000277313 0)
(0.752593 0.000504447 0)
(0.620751 0.000205244 0)
(0.752285 0.00037554 0)
(0.620566 0.000151534 0)
(0.752054 0.000278985 0)
(0.620429 0.000111602 0)
(0.751881 0.000206833 0)
(0.620326 8.19883e-05 0)
(0.751752 0.000153026 0)
(0.620251 6.00754e-05 0)
(0.751655 0.000112989 0)
(0.620194 4.39026e-05 0)
(0.751584 8.3228e-05 0)
(0.620153 3.20031e-05 0)
(0.75153 6.11612e-05 0)
(0.620122 2.32838e-05 0)
(0.751491 4.48404e-05 0)
(0.6201 1.69402e-05 0)
(0.751461 3.28171e-05 0)
(0.620083 1.23502e-05 0)
(0.75144 2.40566e-05 0)
(0.620071 9.17649e-06 0)
(0.751424 1.7598e-05 0)
(0.620062 7.01821e-06 0)
(0.751413 1.33434e-05 0)
(0.7514 9.79416e-06 0)
(1.03953 0.111214 0)
(1.00909 0.0490755 0)
(1.08201 0.157357 0)
(1.04743 0.120301 0)
(1.10302 0.164574 0)
(1.08758 0.14968 0)
(1.10583 0.157875 0)
(1.11064 0.1552 0)
(1.09494 0.144487 0)
(1.11686 0.149769 0)
(1.07372 0.124937 0)
(1.1148 0.136056 0)
(1.04605 0.102031 0)
(1.10256 0.117915 0)
(1.01573 0.0792524 0)
(1.08502 0.0986051 0)
(0.986755 0.0589864 0)
(1.06462 0.0789131 0)
(0.961649 0.0421006 0)
(1.04438 0.060467 0)
(0.941444 0.0284252 0)
(1.02588 0.0439639 0)
(0.926187 0.0177039 0)
(1.01023 0.0300342 0)
(0.915364 0.00950103 0)
(0.997986 0.0188818 0)
(0.908384 0.00328534 0)
(0.989004 0.0100575 0)
(0.904649 -0.00143009 0)
(0.983069 0.00315268 0)
(0.903531 -0.00517843 0)
(0.979817 -0.00230174 0)
(0.904541 -0.0085358 0)
(0.978817 -0.00687668 0)
(0.907466 -0.0118592 0)
(0.97977 -0.0111484 0)
(0.912276 -0.0153674 0)
(0.982567 -0.0154822 0)
(0.919011 -0.0193263 0)
(0.987204 -0.0201538 0)
(0.927855 -0.0239734 0)
(0.993775 -0.0254786 0)
(0.93913 -0.0294903 0)
(1.00252 -0.0317432 0)
(0.953249 -0.0359848 0)
(1.01382 -0.0391434 0)
(0.970654 -0.0435077 0)
(1.02815 -0.0477593 0)
(0.991917 -0.0520627 0)
(1.04584 -0.0577593 6.20342e-34)
(1.01768 -0.0615731 0)
(1.0677 -0.0691444 -6.153e-34)
(1.04862 -0.071778 0)
(1.09456 -0.081815 0)
(1.08543 -0.0820936 0)
(1.12737 -0.0954268 0)
(1.12858 -0.0914708 0)
(1.16716 -0.109183 0)
(1.17813 -0.0982075 0)
(1.21483 -0.121586 0)
(1.23302 -0.0997078 0)
(1.27079 -0.130019 0)
(1.2901 -0.093078 0)
(1.33302 -0.13013 0)
(1.34426 -0.0764792 0)
(1.39648 -0.118026 0)
(1.38947 -0.0497899 0)
(1.45446 -0.0920863 0)
(1.41825 -0.0160221 0)
(1.49904 -0.0517189 0)
(1.42567 0.0202138 0)
(1.52168 -0.00368946 0)
(1.41233 0.0549343 0)
(1.52073 0.0441613 0)
(1.37906 0.0836145 0)
(1.49698 0.0880581 0)
(1.32998 0.102459 0)
(1.45283 0.121343 0)
(1.27142 0.110418 0)
(1.39426 0.140076 0)
(1.20978 0.108845 0)
(1.32882 0.144596 0)
(1.1505 0.100422 0)
(1.26315 0.137665 0)
(1.09722 0.0881284 0)
(1.20293 0.123383 0)
(1.05163 0.0744307 0)
(1.15069 0.105698 0)
(1.01404 0.061035 0)
(1.10731 0.0874816 0)
(0.983883 0.0489358 0)
(1.07246 0.070523 0)
(0.96018 0.0385879 0)
(1.04512 0.0557501 0)
(0.941797 0.0300782 0)
(1.02403 0.0434781 0)
(0.92764 0.0232482 0)
(1.00789 0.0336216 0)
(0.916802 0.017839 0)
(0.995572 0.0258185 0)
(0.908562 0.0136146 0)
(0.986246 0.0196951 0)
(0.902303 0.0103595 0)
(0.979218 0.01498 0)
(0.897544 0.00786453 0)
(0.973895 0.0113818 0)
(0.893932 0.00595677 0)
(0.969856 0.00862836 0)
(0.891191 0.00450401 0)
(0.966799 0.00653193 0)
(0.889112 0.00339905 0)
(0.964481 0.00493988 0)
(0.887537 0.00255882 0)
(0.962721 0.00372795 0)
(0.886347 0.00192193 0)
(0.96139 0.00280609 0)
(0.885448 0.00144136 0)
(0.960385 0.0021088 0)
(0.88477 0.00107968 0)
(0.959627 0.00158342 0)
(0.884259 0.000807676 0)
(0.959053 0.00118782 0)
(0.883874 0.000603231 0)
(0.958619 0.000889863 0)
(0.883583 0.000449719 0)
(0.958292 0.000665611 0)
(0.883365 0.000334626 0)
(0.958046 0.000496963 0)
(0.883202 0.000248528 0)
(0.95786 0.000370423 0)
(0.883079 0.000184242 0)
(0.95772 0.000275668 0)
(0.882987 0.000136307 0)
(0.957616 0.00020482 0)
(0.882919 0.000100609 0)
(0.957537 0.000151863 0)
(0.882868 7.4086e-05 0)
(0.957478 0.000112344 0)
(0.88283 5.44336e-05 0)
(0.957434 8.29276e-05 0)
(0.882801 3.99736e-05 0)
(0.957401 6.10823e-05 0)
(0.88278 2.93247e-05 0)
(0.957377 4.50602e-05 0)
(0.882765 2.17751e-05 0)
(0.957358 3.30413e-05 0)
(0.882753 1.61068e-05 0)
(0.957346 2.50515e-05 0)
(0.957332 1.76541e-05 0)
(1.01973 0.0665369 0)
(1.0042 0.0293501 0)
(1.05948 0.113133 0)
(1.02715 0.080547 0)
(1.09568 0.137903 0)
(1.06412 0.113478 0)
(1.12105 0.145048 0)
(1.09757 0.129834 0)
(1.1368 0.140589 0)
(1.12081 0.134014 0)
(1.14347 0.129352 0)
(1.13811 0.129387 0)
(1.14152 0.114991 0)
(1.14554 0.119867 0)
(1.13362 0.0986449 0)
(1.14749 0.106508 0)
(1.12197 0.0808949 0)
(1.14443 0.090561 0)
(1.10836 0.0629258 0)
(1.13713 0.0740722 0)
(1.0945 0.0460509 0)
(1.12811 0.0578225 0)
(1.08191 0.0314988 0)
(1.11858 0.0426263 0)
(1.07149 0.019604 0)
(1.10963 0.0293082 0)
(1.06356 0.0100382 0)
(1.10189 0.017981 0)
(1.05815 0.00237851 0)
(1.09586 0.00856537 0)
(1.05503 -0.00386367 0)
(1.09169 0.000823384 0)
(1.054 -0.00929838 0)
(1.08933 -0.0058473 0)
(1.05478 -0.0145497 0)
(1.08863 -0.011935 0)
(1.05739 -0.020006 0)
(1.08956 -0.0180903 0)
(1.06184 -0.0259797 0)
(1.09214 -0.0245993 0)
(1.06826 -0.0328446 0)
(1.0964 -0.0319016 0)
(1.07698 -0.0409321 0)
(1.10254 -0.0404681 0)
(1.08845 -0.0504643 0)
(1.11099 -0.0506109 0)
(1.103 -0.0616131 6.20342e-34)
(1.12238 -0.0623081 0)
(1.12119 -0.0744463 5.45042e-36)
(1.13656 -0.0759532 6.20342e-34)
(1.14406 -0.0889755 -6.153e-34)
(1.15532 -0.0920047 -6.153e-34)
(1.17271 -0.105099 0)
(1.17933 -0.110473 0)
(1.20847 -0.122265 0)
(1.21011 -0.131185 0)
(1.25281 -0.139207 0)
(1.24963 -0.153519 0)
(1.30703 -0.153442 0)
(1.30018 -0.175812 0)
(1.37107 -0.160362 0)
(1.36386 -0.194056 0)
(1.44035 -0.154684 0)
(1.43666 -0.199413 0)
(1.5077 -0.132699 0)
(1.51159 -0.185368 0)
(1.56611 -0.0923926 0)
(1.57869 -0.150497 0)
(1.60483 -0.0378433 0)
(1.62898 -0.0904411 0)
(1.61767 0.0211322 0)
(1.65564 -0.0165309 0)
(1.60623 0.0779436 0)
(1.65358 0.0555992 0)
(1.57106 0.12649 0)
(1.63212 0.123227 0)
(1.51683 0.159523 0)
(1.58673 0.175577 0)
(1.45123 0.174567 0)
(1.52438 0.205679 0)
(1.3818 0.173452 0)
(1.45375 0.214023 0)
(1.31525 0.160505 0)
(1.38263 0.204221 0)
(1.25598 0.140796 0)
(1.31725 0.182646 0)
(1.20595 0.118576 0)
(1.26105 0.155726 0)
(1.16535 0.0968 0)
(1.21517 0.128083 0)
(1.13336 0.0771999 0)
(1.17909 0.102513 0)
(1.10869 0.0605432 0)
(1.15142 0.0804236 0)
(1.08991 0.0469383 0)
(1.13052 0.0622611 0)
(1.07563 0.036105 0)
(1.11485 0.0479028 0)
(1.06485 0.0275988 0)
(1.1032 0.036596 0)
(1.05679 0.0210121 0)
(1.0945 0.0277554 0)
(1.05073 0.0159801 0)
(1.08805 0.0210418 0)
(1.04614 0.0121363 0)
(1.08321 0.0159738 0)
(1.04267 0.00920007 0)
(1.07954 0.0120927 0)
(1.04005 0.00696851 0)
(1.0768 0.00915337 0)
(1.03806 0.00527107 0)
(1.07472 0.00693074 0)
(1.03655 0.00397708 0)
(1.07314 0.00523619 0)
(1.03541 0.00299421 0)
(1.07194 0.00394491 0)
(1.03455 0.00225184 0)
(1.07105 0.00296924 0)
(1.0339 0.00169241 0)
(1.07037 0.00223484 0)
(1.03341 0.00127073 0)
(1.06986 0.00168126 0)
(1.03303 0.000952858 0)
(1.06947 0.00126343 0)
(1.03275 0.00071338 0)
(1.06917 0.000948088 0)
(1.03254 0.000533207 0)
(1.06895 0.000710222 0)
(1.03238 0.00039796 0)
(1.06878 0.000531251 0)
(1.03226 0.000296607 0)
(1.06865 0.000396942 0)
(1.03216 0.000220692 0)
(1.06855 0.000296203 0)
(1.0321 0.000163865 0)
(1.06848 0.000220612 0)
(1.03204 0.000121408 0)
(1.06843 0.00016396 0)
(1.03201 8.97577e-05 0)
(1.06839 0.00012161 0)
(1.03198 6.63112e-05 0)
(1.06835 9.00102e-05 0)
(1.03195 4.88775e-05 0)
(1.06833 6.66872e-05 0)
(1.03194 3.6377e-05 0)
(1.06831 4.90431e-05 0)
(1.03193 2.66186e-05 0)
(1.0683 3.71983e-05 0)
(1.06829 2.57233e-05 0)
(1.01042 0.0440858 0)
(1.00231 0.018928 0)
(1.03612 0.0800457 0)
(1.01542 0.0548478 0)
(1.06734 0.104569 0)
(1.04071 0.0822583 0)
(1.09721 0.118078 0)
(1.06988 0.0999638 0)
(1.12202 0.122122 0)
(1.09645 0.109208 0)
(1.1401 0.119253 0)
(1.11895 0.111307 0)
(1.1518 0.111148 0)
(1.13574 0.108163 0)
(1.15809 0.0987747 0)
(1.14807 0.100225 0)
(1.15934 0.084321 0)
(1.15538 0.0893073 0)
(1.15681 0.0694186 0)
(1.15816 0.0766051 0)
(1.1521 0.054721 0)
(1.15765 0.0625252 0)
(1.1462 0.0408106 0)
(1.15498 0.0485362 0)
(1.1399 0.0281225 0)
(1.15122 0.0355986 0)
(1.13408 0.0169482 0)
(1.14693 0.0238083 0)
(1.12933 0.00733723 0)
(1.14285 0.0133099 0)
(1.12594 -0.000914682 0)
(1.1395 0.00421678 0)
(1.12391 -0.00822622 0)
(1.1371 -0.00381437 0)
(1.12333 -0.0152296 0)
(1.13571 -0.0113613 0)
(1.12423 -0.0224597 0)
(1.13544 -0.0189852 0)
(1.1266 -0.0303477 0)
(1.13636 -0.026974 0)
(1.13052 -0.039374 0)
(1.13851 -0.0358206 0)
(1.13635 -0.0499227 0)
(1.14199 -0.0462928 0)
(1.14458 -0.0620369 0)
(1.14746 -0.0588393 0)
(1.15561 -0.0760916 0)
(1.15547 -0.0733466 0)
(1.17031 -0.0930575 0)
(1.16614 -0.0906488 0)
(1.18996 -0.11323 0)
(1.18127 -0.111652 0)
(1.21595 -0.13645 0)
(1.20171 -0.136467 0)
(1.25038 -0.16257 0)
(1.22953 -0.165613 0)
(1.29602 -0.1906 0)
(1.26763 -0.199164 0)
(1.3559 -0.217275 0)
(1.31972 -0.235687 0)
(1.43007 -0.234797 0)
(1.38892 -0.268228 0)
(1.5091 -0.233886 0)
(1.46192 -0.278439 0)
(1.58413 -0.209387 0)
(1.53598 -0.260401 0)
(1.64521 -0.153957 0)
(1.58917 -0.211581 0)
(1.68176 -0.0711441 0)
(1.61153 -0.126986 0)
(1.69216 0.0178799 0)
(1.61429 -0.0269312 0)
(1.68105 0.101474 0)
(1.60858 0.0667086 0)
(1.64768 0.173296 0)
(1.60307 0.1566 0)
(1.59329 0.222817 0)
(1.57809 0.22996 0)
(1.52607 0.24621 0)
(1.5336 0.272902 0)
(1.45384 0.245611 0)
(1.47586 0.286258 0)
(1.38424 0.226797 0)
(1.41235 0.273815 0)
(1.32193 0.197851 0)
(1.34993 0.24496 0)
(1.26993 0.165442 0)
(1.29481 0.207728 0)
(1.22862 0.133945 0)
(1.25004 0.169388 0)
(1.19691 0.105832 0)
(1.21561 0.134227 0)
(1.17305 0.0821895 0)
(1.18996 0.104285 0)
(1.15532 0.0632458 0)
(1.17114 0.0799892 0)
(1.14226 0.0484339 0)
(1.15749 0.0609572 0)
(1.1327 0.036839 0)
(1.14769 0.0461593 0)
(1.12569 0.0278741 0)
(1.14055 0.0347623 0)
(1.12047 0.0210746 0)
(1.13536 0.0262619 0)
(1.11654 0.0159253 0)
(1.13163 0.0199032 0)
(1.11363 0.012026 0)
(1.12881 0.015009 0)
(1.11143 0.00909708 0)
(1.12672 0.0113472 0)
(1.10977 0.00688522 0)
(1.12514 0.00859937 0)
(1.10851 0.00520201 0)
(1.12393 0.00649428 0)
(1.10757 0.0039236 0)
(1.12302 0.0048869 0)
(1.10686 0.00295799 0)
(1.12235 0.00367831 0)
(1.10632 0.00222957 0)
(1.12184 0.00277241 0)
(1.10591 0.00167913 0)
(1.12145 0.00208996 0)
(1.1056 0.00126293 0)
(1.12115 0.00157408 0)
(1.10536 0.000948356 0)
(1.12093 0.00118387 0)
(1.10519 0.000710929 0)
(1.12076 0.000888608 0)
(1.10505 0.000532287 0)
(1.12063 0.000666085 0)
(1.10495 0.000398133 0)
(1.12053 0.000499106 0)
(1.10487 0.000297359 0)
(1.12046 0.000373609 0)
(1.10481 0.000221657 0)
(1.1204 0.000279158 0)
(1.10477 0.000164886 0)
(1.12036 0.000208126 0)
(1.10474 0.000122413 0)
(1.12033 0.000154891 0)
(1.10471 9.08e-05 0)
(1.1203 0.000115048 0)
(1.10469 6.71561e-05 0)
(1.12029 8.5478e-05 0)
(1.10468 5.00765e-05 0)
(1.12027 6.3021e-05 0)
(1.10467 3.64335e-05 0)
(1.12026 4.77703e-05 0)
(1.12025 3.26109e-05 0)
(1.00593 0.0305381 0)
(1.00138 0.0129951 0)
(1.02218 0.0572485 0)
(1.00941 0.0386046 0)
(1.04459 0.0775143 0)
(1.02623 0.0598398 0)
(1.0693 0.0909669 0)
(1.04789 0.0752598 0)
(1.09337 0.0982218 0)
(1.07053 0.0851409 0)
(1.11462 0.100056 0)
(1.09211 0.0900541 0)
(1.13218 0.0971234 0)
(1.1112 0.0906001 0)
(1.14532 0.0905146 0)
(1.12739 0.0870837 0)
(1.15405 0.0812673 0)
(1.13954 0.0805784 0)
(1.15895 0.069664 0)
(1.14852 0.0717105 0)
(1.16051 0.056577 0)
(1.15382 0.0609639 0)
(1.15994 0.0435626 0)
(1.15635 0.0491013 0)
(1.15813 0.0314384 0)
(1.15701 0.0374089 0)
(1.1556 0.0202901 0)
(1.15628 0.02634 0)
(1.15297 0.0102973 0)
(1.1547 0.0159472 0)
(1.15063 0.00142673 0)
(1.15299 0.00654906 0)
(1.14883 -0.00681062 0)
(1.15133 -0.00201426 0)
(1.14777 -0.0149481 0)
(1.14994 -0.0102979 0)
(1.14753 -0.0232882 0)
(1.149 -0.0187434 0)
(1.14818 -0.0321484 0)
(1.14863 -0.0276233 0)
(1.14985 -0.042366 0)
(1.149 -0.0374972 0)
(1.15297 -0.0548484 0)
(1.15025 -0.0494134 0)
(1.15798 -0.0698481 0)
(1.15279 -0.0638481 0)
(1.16563 -0.0875906 0)
(1.15715 -0.0809979 0)
(1.17673 -0.108841 0)
(1.16403 -0.101748 0)
(1.19229 -0.1345 0)
(1.17444 -0.127206 0)
(1.21429 -0.165431 0)
(1.18973 -0.158469 0)
(1.24549 -0.202391 0)
(1.21206 -0.196815 0)
(1.28964 -0.245181 0)
(1.24442 -0.243309 0)
(1.35089 -0.288833 0)
(1.29117 -0.296942 0)
(1.42255 -0.316626 0)
(1.3513 -0.339891 0)
(1.48872 -0.311267 0)
(1.39656 -0.344604 0)
(1.54152 -0.273078 0)
(1.40831 -0.313203 -5.27712e-19)
(1.56549 -0.199229 0)
(1.37211 -0.235551 0)
(1.54512 -0.0933945 0)
(1.28292 -0.106614 -4.54332e-17)
(1.52948 0.0162298 0)
(1.22455 -0.0112931 -4.50151e-32)
(1.53428 0.120691 0)
(1.23738 0.0619068 2.50788e-17)
(1.53265 0.215869 0)
(1.27917 0.158234 0)
(1.51614 0.28235 0)
(1.31951 0.246472 0)
(1.48216 0.313673 0)
(1.3758 0.306882 0)
(1.43257 0.314534 0)
(1.37886 0.335848 0)
(1.37771 0.292046 0)
(1.35103 0.328672 0)
(1.32254 0.254702 0)
(1.31246 0.300131 0)
(1.27464 0.211531 0)
(1.2721 0.255625 0)
(1.23684 0.169538 0)
(1.23658 0.207188 0)
(1.20855 0.132552 0)
(1.20901 0.162516 0)
(1.18795 0.101985 0)
(1.18903 0.124884 0)
(1.17321 0.0776664 0)
(1.17491 0.0947353 0)
(1.16279 0.0586912 0)
(1.16507 0.0713694 0)
(1.15544 0.0440619 0)
(1.1583 0.0535186 0)
(1.15019 0.0330878 0)
(1.15359 0.0400077 0)
(1.14647 0.0250475 0)
(1.15029 0.0299872 0)
(1.14382 0.0190067 0)
(1.14808 0.0225437 0)
(1.14189 0.0143796 0)
(1.14646 0.0169456 0)
(1.14042 0.0108814 0)
(1.14533 0.0128129 0)
(1.13929 0.00821607 0)
(1.1445 0.00973381 0)
(1.13843 0.00617253 0)
(1.14384 0.00734941 0)
(1.1378 0.00462952 0)
(1.14335 0.00552197 0)
(1.13732 0.00348154 0)
(1.143 0.00415212 0)
(1.13696 0.0026243 0)
(1.14272 0.00313269 0)
(1.13669 0.00197856 0)
(1.14251 0.00236505 0)
(1.13648 0.0014903 0)
(1.14234 0.00178361 0)
(1.13632 0.001121 0)
(1.14221 0.00134307 0)
(1.1362 0.000842221 0)
(1.14212 0.00100833 0)
(1.13611 0.00063239 0)
(1.14205 0.000756109 0)
(1.13604 0.000474473 0)
(1.14199 0.00056767 0)
(1.13599 0.000355478 0)
(1.14195 0.000425938 0)
(1.13595 0.000265819 0)
(1.14192 0.000318974 0)
(1.13592 0.000198373 0)
(1.1419 0.000238268 0)
(1.1359 0.000147755 0)
(1.14188 0.000177716 0)
(1.13588 0.000109913 0)
(1.14186 0.000132318 0)
(1.13587 8.1481e-05 0)
(1.14185 9.84767e-05 0)
(1.13586 6.07918e-05 0)
(1.14185 7.27114e-05 0)
(1.13585 4.39762e-05 0)
(1.14184 5.49623e-05 0)
(1.14184 3.71201e-05 0)
(1.00372 0.0217453 0)
(1.00091 0.00927378 0)
(1.01454 0.0415248 0)
(1.00627 0.0277888 0)
(1.03051 0.0575433 0)
(1.01799 0.0438639 0)
(1.04942 0.0692485 0)
(1.03394 0.0563533 0)
(1.06935 0.0767692 0)
(1.05185 0.0652154 0)
(1.08874 0.0803869 0)
(1.0702 0.0706565 0)
(1.1065 0.080359 0)
(1.08789 0.0728393 0)
(1.12167 0.0770977 0)
(1.1041 0.0719166 0)
(1.13394 0.0711215 0)
(1.11797 0.0683115 0)
(1.1433 0.0630194 0)
(1.12949 0.0623519 0)
(1.14969 0.0533673 0)
(1.13833 0.0545701 0)
(1.15338 0.0428584 0)
(1.1446 0.0454109 0)
(1.15507 0.0322993 0)
(1.14854 0.03572 0)
(1.15535 0.0219948 0)
(1.1507 0.0260637 0)
(1.15472 0.0122034 0)
(1.15144 0.0165788 0)
(1.15364 0.00318633 0)
(1.15132 0.00762568 0)
(1.15238 -0.00535625 0)
(1.15052 -0.000753675 0)
(1.15115 -0.01391 0)
(1.14937 -0.00906865 0)
(1.15007 -0.022841 0)
(1.14802 -0.0176614 0)
(1.14935 -0.0326728 0)
(1.1466 -0.026908 0)
(1.1493 -0.0441818 0)
(1.14533 -0.0374445 0)
(1.14999 -0.0579956 0)
(1.14436 -0.0501039 0)
(1.15169 -0.074586 0)
(1.14376 -0.0655524 0)
(1.15518 -0.0947644 0)
(1.14407 -0.0844817 0)
(1.1613 -0.119671 0)
(1.14589 -0.107868 1.03605e-32)
(1.17111 -0.15065 0)
(1.15004 -0.137015 -1.02859e-32)
(1.18631 -0.189318 0)
(1.15758 -0.173671 0)
(1.20928 -0.237399 0)
(1.16983 -0.219783 0)
(1.24322 -0.295283 0)
(1.1885 -0.277252 0)
(1.29013 -0.349354 0)
(1.21518 -0.34385 0)
(1.32659 -0.369046 0)
(1.23227 -0.376351 0)
(1.32382 -0.336455 -5.27712e-19)
(1.20494 -0.341833 -2.99295e-18)
(1.22988 -0.249136 -5.27712e-19)
(1.08928 -0.186816 -5.27712e-19)
(1.10992 -0.121662 -4.54332e-17)
(0.591862 0.565399 0)
(0.963603 -0.0231506 -4.54332e-17)
(0.505248 0.374012 -4.54332e-17)
(0.92574 0.0236942 2.50788e-17)
(0.457457 0.272643 -4.50151e-32)
(0.988024 0.074282 2.50788e-17)
(0.473583 0.255665 2.50788e-17)
(1.06919 0.145389 0)
(0.511247 0.202614 0)
(1.17915 0.239331 0)
(0.945077 0.0967194 0)
(1.26987 0.320465 0)
(1.06491 0.216164 1.83662e-19)
(1.29465 0.346504 0)
(1.17131 0.311066 0)
(1.28512 0.334847 0)
(1.20896 0.338204 0)
(1.26218 0.299745 0)
(1.21162 0.32307 0)
(1.23385 0.250358 0)
(1.20287 0.283956 0)
(1.20867 0.199579 0)
(1.18842 0.232363 0)
(1.18956 0.154476 0)
(1.17511 0.181629 0)
(1.176 0.117398 0)
(1.16549 0.138442 0)
(1.16672 0.0882672 0)
(1.15914 0.104018 0)
(1.16053 0.0660283 0)
(1.15514 0.0775613 0)
(1.15643 0.0493024 0)
(1.15273 0.0576193 0)
(1.15367 0.0368096 0)
(1.15132 0.0427651 0)
(1.15185 0.0274585 0)
(1.15053 0.031811 0)
(1.15066 0.0204643 0)
(1.15012 0.0237303 0)
(1.14989 0.0153511 0)
(1.14994 0.0177143 0)
(1.1494 0.0116584 0)
(1.14986 0.0133077 0)
(1.14903 0.00888597 0)
(1.14988 0.0101018 0)
(1.14875 0.00672889 0)
(1.14991 0.00762863 0)
(1.14855 0.0050693 0)
(1.14994 0.00572395 0)
(1.14839 0.00381508 0)
(1.14995 0.00431004 0)
(1.14826 0.00287703 0)
(1.14995 0.003266 0)
(1.14815 0.00217122 0)
(1.14995 0.00247106 0)
(1.14807 0.0016362 0)
(1.14994 0.00186491 0)
(1.14801 0.00122932 0)
(1.14994 0.00140388 0)
(1.14796 0.000920927 0)
(1.14994 0.00105285 0)
(1.14793 0.000690227 0)
(1.14994 0.000790051 0)
(1.1479 0.000518172 0)
(1.14993 0.000594076 0)
(1.14788 0.000388657 0)
(1.14993 0.000446439 0)
(1.14787 0.000290795 0)
(1.14993 0.000334832 0)
(1.14786 0.000217131 0)
(1.14993 0.000250381 0)
(1.14785 0.000161946 0)
(1.14992 0.000186943 0)
(1.14784 0.000120653 0)
(1.14992 0.000139359 0)
(1.14783 8.95467e-05 0)
(1.14992 0.000103781 0)
(1.14783 6.67567e-05 0)
(1.14992 7.66609e-05 0)
(1.14783 4.80139e-05 0)
(1.14992 5.77721e-05 0)
(1.14992 3.86542e-05 0)
(1.00258 0.0157213 0)
(1.00066 0.00669047 0)
(1.01029 0.0303548 0)
(1.00454 0.0200855 0)
(1.02209 0.0426888 0)
(1.01322 0.0320643 0)
(1.03667 0.0522189 0)
(1.02539 0.0417741 0)
(1.05281 0.0589474 0)
(1.03966 0.0490687 0)
(1.06943 0.0629389 0)
(1.05498 0.054035 0)
(1.08557 0.064233 0)
(1.07054 0.0567009 0)
(1.10043 0.062957 0)
(1.08557 0.0570569 0)
(1.11353 0.0593631 0)
(1.09939 0.0552145 0)
(1.12452 0.0537849 0)
(1.11159 0.0513592 0)
(1.13327 0.0466022 0)
(1.12188 0.0458239 0)
(1.13971 0.0383303 0)
(1.1301 0.0389653 0)
(1.14412 0.0295729 0)
(1.13622 0.0313177 0)
(1.14682 0.0207712 0)
(1.14048 0.0233558 0)
(1.14805 0.012152 0)
(1.14308 0.0153573 0)
(1.14815 0.00383021 0)
(1.14425 0.00752176 0)
(1.14749 -0.00432602 0)
(1.14428 -9.64576e-05 0)
(1.14625 -0.0126593 0)
(1.14338 -0.00782026 0)
(1.14453 -0.0215474 0)
(1.14168 -0.0159466 0)
(1.14252 -0.0314969 0)
(1.13928 -0.0248984 0)
(1.14035 -0.0431836 0)
(1.13626 -0.0352751 0)
(1.13809 -0.0574092 0)
(1.13267 -0.0478426 0)
(1.13598 -0.0750295 0)
(1.12856 -0.0634385 0)
(1.13449 -0.0969834 1.03605e-32)
(1.12413 -0.0829983 0)
(1.13421 -0.124461 8.02932e-35)
(1.11971 -0.107583 1.03605e-32)
(1.13577 -0.159131 -1.02859e-32)
(1.11562 -0.138572 -1.02859e-32)
(1.13992 -0.203034 0)
(1.11214 -0.177828 0)
(1.14716 -0.258145 0)
(1.10899 -0.227023 0)
(1.15692 -0.323041 0)
(1.10498 -0.287006 0)
(1.1584 -0.365852 0)
(1.09115 -0.345336 0)
(1.11238 -0.332815 -2.99295e-18)
(1.04013 -0.330325 -1.29767e-17)
(1.00557 -0.196419 -2.99295e-18)
(0.90749 -0.198175 -2.99295e-18)
(1.11143 -0.0507813 0)
(0.442749 0.329775 0)
(0.477563 0 0)
(0 -0.0152024 0)
(0.274484 0 0)
(0 -0.00665457 0)
(0.278261 0 0)
(0 0.00654824 0)
(0.32808 0 0)
(0 0.0102466 0)
(0.477033 0.0172284 0)
(0 0.0236867 0)
(0.860571 0.0782576 1.83662e-19)
(0.390931 0.0952327 0)
(0.959416 0.19551 1.83662e-19)
(0.80328 0.0658945 1.9257e-19)
(1.08147 0.297411 0)
(0.928469 0.189014 7.46604e-18)
(1.13294 0.323894 0)
(1.03324 0.286727 0)
(1.15318 0.305989 0)
(1.07771 0.302837 0)
(1.15751 0.264961 0)
(1.10351 0.279625 0)
(1.15488 0.213779 0)
(1.11764 0.234988 0)
(1.15128 0.165185 0)
(1.12477 0.185231 0)
(1.14882 0.124736 0)
(1.1295 0.140904 0)
(1.14763 0.0930339 0)
(1.13352 0.105205 0)
(1.14737 0.0689566 0)
(1.13707 0.0778251 0)
(1.14764 0.0509827 0)
(1.14011 0.0573481 0)
(1.14816 0.0377083 0)
(1.14268 0.0422417 0)
(1.14879 0.0279988 0)
(1.14482 0.0311856 0)
(1.14939 0.0208805 0)
(1.14656 0.0231266 0)
(1.1499 0.0155962 0)
(1.14796 0.0172067 0)
(1.15034 0.0117033 0)
(1.14903 0.0128681 0)
(1.15075 0.00880865 0)
(1.1499 0.00969178 0)
(1.15109 0.00659807 0)
(1.1506 0.0072892 0)
(1.15134 0.0049557 0)
(1.15113 0.00547166 0)
(1.15151 0.0037655 0)
(1.15152 0.00413634 0)
(1.15164 0.00286845 0)
(1.15181 0.00314057 0)
(1.15173 0.00217367 0)
(1.15203 0.00237665 0)
(1.15181 0.00164236 0)
(1.1522 0.00179178 0)
(1.15187 0.00123527 0)
(1.15233 0.00134449 0)
(1.15191 0.000925976 0)
(1.15243 0.00100847 0)
(1.15194 0.000695608 0)
(1.15249 0.000760886 0)
(1.15196 0.000523325 0)
(1.15254 0.000573847 0)
(1.15197 0.000393132 0)
(1.15258 0.000431736 0)
(1.15198 0.000294615 0)
(1.15261 0.000324091 0)
(1.15199 0.000220303 0)
(1.15263 0.00024233 0)
(1.152 0.000164452 0)
(1.15265 0.000180991 0)
(1.152 0.000122562 0)
(1.15266 0.000135016 0)
(1.15201 9.09618e-05 0)
(1.15267 0.000100561 0)
(1.15201 6.77562e-05 0)
(1.15267 7.43196e-05 0)
(1.15201 4.85057e-05 0)
(1.15268 5.58539e-05 0)
(1.15268 3.7046e-05 0)
(1.00195 0.0112997 0)
(1.00051 0.00474203 0)
(1.0078 0.02196 0)
(1.00354 0.0142374 0)
(1.01697 0.0311955 0)
(1.01035 0.0228899 0)
(1.02863 0.0385925 0)
(1.02012 0.0301184 0)
(1.04195 0.0440871 0)
(1.03189 0.03575 0)
(1.05619 0.0477045 0)
(1.04492 0.0397935 0)
(1.07063 0.0494205 0)
(1.05863 0.0422632 0)
(1.08457 0.0492099 0)
(1.07241 0.0431093 0)
(1.09749 0.0471306 0)
(1.08564 0.0422958 0)
(1.10896 0.0433537 0)
(1.09784 0.039886 0)
(1.11873 0.0381579 0)
(1.10865 0.0360635 0)
(1.1266 0.0319238 0)
(1.11778 0.0310958 0)
(1.13257 0.0250755 0)
(1.1251 0.0253452 0)
(1.13676 0.0179464 0)
(1.13058 0.0191678 0)
(1.1393 0.0107679 0)
(1.13432 0.0128125 0)
(1.14037 0.00365411 0)
(1.13642 0.00645087 0)
(1.14017 -0.00351245 0)
(1.13703 0.000101898 0)
(1.13884 -0.0110008 0)
(1.13624 -0.00648584 0)
(1.13644 -0.0191568 0)
(1.13413 -0.0135507 0)
(1.13303 -0.0284776 0)
(1.13069 -0.0214884 0)
(1.12861 -0.0396343 0)
(1.12589 -0.0308514 0)
(1.12314 -0.053454 0)
(1.11958 -0.0423733 0)
(1.11665 -0.0708716 0)
(1.11163 -0.0569475 0)
(1.10921 -0.092911 0)
(1.10185 -0.0755559 0)
(1.10085 -0.120776 0)
(1.09003 -0.0992253 1.36109e-33)
(1.09145 -0.155982 0)
(1.07587 -0.129168 -1.35848e-33)
(1.08024 -0.199909 0)
(1.05875 -0.166619 0)
(1.06463 -0.252469 0)
(1.03654 -0.211412 0)
(1.03827 -0.304065 0)
(1.00219 -0.260645 0)
(0.988081 -0.296027 -1.29767e-17)
(0.940708 -0.295148 -5.05935e-17)
(0.899052 -0.15565 -1.29767e-17)
(0.821847 -0.228842 -1.29767e-17)
(0.980137 -0.0233134 0)
(0.371455 0.314785 0)
(0.155222 0 0)
(0 -0.0074631 0)
(0.00592169 0 0)
(0 0.000169626 0)
(0.012886 0 0)
(0 0.000488659 0)
(0.0273802 0 0)
(0 0.000739047 0)
(0.0756348 0 0)
(0 0.000388871 0)
(0.220916 0 0)