/*--------------------------------*- C++ -*----------------------------------*\
| =========                 |                                                 |
| \\      /  F ield         | OpenFOAM: The Open Source CFD Toolbox           |
|  \\    /   O peration     | Version:  2206                                  |
|   \\  /    A nd           | Website:  www.openfoam.com                      |
|    \\/     M anipulation  |                                                 |
\*---------------------------------------------------------------------------*/
FoamFile
{
    version     2.0;
    format      ascii;
    arch        "LSB;label=32;scalar=64";
    class       volScalarField;
    location    "0.9";
    object      k;
}
// * * * * * * * * * * * * * * * * * * * * * * * * * * * * * * * * * * * * * //

dimensions      [0 2 -2 0 0 0 0];

internalField   nonuniform List<scalar> 
1875
(
8.55201e-05
5.31669e-05
3.76505e-05
2.9119e-05
2.39308e-05
2.06794e-05
1.86324e-05
1.73934e-05
1.67417e-05
1.65359e-05
1.66694e-05
1.70534e-05
1.7612e-05
1.82864e-05
1.904e-05
1.9859e-05
2.07585e-05
2.17781e-05
2.29856e-05
2.44832e-05
2.6418e-05
2.90031e-05
3.25517e-05
3.75329e-05
4.46579e-05
5.50078e-05
7.02108e-05
9.26494e-05
0.000125596
0.000173016
0.000236993
0.000323376
0.000440079
0.000580962
0.000731008
0.000862413
0.000962126
0.00100943
0.000994162
0.00091741
0.000791955
0.000635206
0.000469446
0.000327434
0.000220571
0.000146642
9.80153e-05
6.68778e-05
4.72349e-05
3.49679e-05
2.74114e-05
2.28415e-05
2.01444e-05
1.86084e-05
1.78025e-05
1.74624e-05
1.74174e-05
1.7559e-05
1.78094e-05
1.81119e-05
1.84251e-05
1.87175e-05
1.89655e-05
1.9167e-05
1.93409e-05
1.94891e-05
1.96151e-05
1.97198e-05
1.98051e-05
1.98738e-05
1.99285e-05
1.99716e-05
2.00052e-05
2.0031e-05
2.00495e-05
8.51358e-05
5.3714e-05
3.78172e-05
2.87386e-05
2.31966e-05
1.95833e-05
1.71865e-05
1.5608e-05
1.4611e-05
1.40484e-05
1.38184e-05
1.38416e-05
1.40498e-05
1.43862e-05
1.48053e-05
1.52575e-05
1.57249e-05
1.62035e-05
1.67024e-05
1.72437e-05
1.78631e-05
1.86119e-05
1.95614e-05
2.0811e-05
2.2499e-05
2.48181e-05
2.80331e-05
3.24946e-05
3.86306e-05
4.69014e-05
5.76906e-05
7.16938e-05
9.02261e-05
0.000114644
0.000148014
0.000194524
0.000248441
0.000303267
0.000350155
0.000381119
0.000391039
0.000378179
0.000344654
0.000296915
0.000242536
0.000188606
0.000140557
0.000101527
7.22408e-05
5.17024e-05
3.80627e-05
2.93652e-05
2.394e-05
2.06248e-05
1.8649e-05
1.75023e-05
1.68548e-05
1.65273e-05
1.63956e-05
1.63798e-05
1.64269e-05
1.65041e-05
1.65914e-05
1.66785e-05
1.67612e-05
1.68372e-05
1.69037e-05
1.69606e-05
1.70083e-05
1.70475e-05
1.70793e-05
1.71049e-05
1.71252e-05
1.71414e-05
1.71541e-05
8.50293e-05
5.35908e-05
3.78413e-05
2.87125e-05
2.29226e-05
1.90353e-05
1.63425e-05
1.44341e-05
1.30786e-05
1.21334e-05
1.15021e-05
1.11145e-05
1.09146e-05
1.08552e-05
1.08992e-05
1.10101e-05
1.11511e-05
1.12997e-05
1.14413e-05
1.15697e-05
1.1687e-05
1.1804e-05
1.19415e-05
1.21306e-05
1.24146e-05
1.28485e-05
1.34934e-05
1.4391e-05
1.5507e-05
1.66959e-05
1.77992e-05
1.88693e-05
2.02572e-05
2.24653e-05
2.62353e-05
3.42379e-05
4.8403e-05
6.83865e-05
9.21793e-05
0.000116546
0.000138022
0.000153485
0.000160719
0.000159177
0.000149616
0.000133846
0.000114279
9.34616e-05
7.36404e-05
5.64742e-05
4.27886e-05
3.26233e-05
2.54902e-05
2.07047e-05
1.76145e-05
1.56763e-05
1.44826e-05
1.37735e-05
1.33745e-05
1.31693e-05
1.30822e-05
1.30634e-05
1.30827e-05
1.31207e-05
1.3166e-05
1.32117e-05
1.32541e-05
1.32912e-05
1.33226e-05
1.33486e-05
1.33696e-05
1.33863e-05
1.33997e-05
1.34102e-05
1.34185e-05
8.49812e-05
5.33325e-05
3.75742e-05
2.85044e-05
2.27337e-05
1.88015e-05
1.59938e-05
1.39242e-05
1.23735e-05
1.12057e-05
1.03235e-05
9.66359e-06
9.1788e-06
8.83148e-06
8.59077e-06
8.43609e-06
8.34093e-06
8.28361e-06
8.24649e-06
8.21732e-06
8.18999e-06
8.16585e-06
8.15474e-06
8.17611e-06
8.26004e-06
8.44503e-06
8.76139e-06
9.16897e-06
9.4564e-06
9.30989e-06
8.63336e-06
7.65847e-06
6.70736e-06
6.05623e-06
5.85009e-06
6.39486e-06
8.84465e-06
1.38177e-05
2.15575e-05
3.1638e-05
4.30763e-05
5.44601e-05
6.42231e-05
7.10527e-05
7.41382e-05
7.33078e-05
6.89966e-05
6.20553e-05
5.35413e-05
4.45546e-05
3.6047e-05
2.8676e-05
2.27486e-05
1.82757e-05
1.50803e-05
1.29111e-05
1.15175e-05
1.06552e-05
1.01552e-05
9.89139e-06
9.77657e-06
9.75576e-06
9.78734e-06
9.84444e-06
9.91055e-06
9.97598e-06
1.00355e-05
1.00868e-05
1.01293e-05
1.01634e-05
1.01902e-05
1.02108e-05
1.02265e-05
1.02383e-05
1.02465e-05
8.49611e-05
5.31741e-05
3.73095e-05
2.82216e-05
2.24734e-05
1.85636e-05
1.57579e-05
1.36647e-05
1.20595e-05
1.08058e-05
9.81353e-06
9.02397e-06
8.39584e-06
7.89785e-06
7.50432e-06
7.19694e-06
6.96162e-06
6.78358e-06
6.64988e-06
6.55096e-06
6.48239e-06
6.44292e-06
6.43968e-06
6.4898e-06
6.62285e-06
6.87695e-06
7.2589e-06
7.60258e-06
7.46333e-06
6.55307e-06
5.14438e-06
3.7415e-06
2.57525e-06
1.80099e-06
1.3731e-06
1.22e-06
1.54576e-06
2.60269e-06
4.7085e-06
8.06671e-06
1.26641e-05
1.81953e-05
2.40871e-05
2.95838e-05
3.39428e-05
3.66111e-05
3.73416e-05
3.61878e-05
3.34681e-05
2.96944e-05
2.54434e-05
2.12289e-05
1.74286e-05
1.4257e-05
1.17813e-05
9.96356e-06
8.71057e-06
7.91838e-06
7.46614e-06
7.24199e-06
7.17327e-06
7.20249e-06
7.28854e-06
7.40167e-06
7.52221e-06
7.63776e-06
7.74151e-06
7.83046e-06
7.90405e-06
7.96317e-06
8.00951e-06
8.04506e-06
8.07178e-06
8.09149e-06
8.10432e-06
8.49526e-05
5.30932e-05
3.7139e-05
2.79953e-05
2.22286e-05
1.83235e-05
1.55308e-05
1.34479e-05
1.18433e-05
1.05766e-05
9.55863e-06
8.73075e-06
8.05261e-06
7.49557e-06
7.03814e-06
6.66505e-06
6.3661e-06
6.13153e-06
5.95344e-06
5.8267e-06
5.74859e-06
5.72067e-06
5.75153e-06
5.86076e-06
6.08314e-06
6.45774e-06
6.93031e-06
7.07306e-06
6.21634e-06
4.51384e-06
2.77054e-06
1.51422e-06
6.85107e-07
2.72577e-07
1.16356e-07
7.85789e-08
1.52578e-07
3.98495e-07
9.74765e-07
2.04119e-06
3.75077e-06
6.11923e-06
9.01432e-06
1.21749e-05
1.52299e-05
1.77431e-05
1.94245e-05
2.01012e-05
1.97274e-05
1.84662e-05
1.65949e-05
1.44285e-05
1.22513e-05
1.02755e-05
8.62444e-06
7.34274e-06
6.42002e-06
5.81479e-06
5.47181e-06
5.33671e-06
5.34342e-06
5.44096e-06
5.59276e-06
5.7705e-06
5.95358e-06
6.1282e-06
6.28598e-06
6.42275e-06
6.53741e-06
6.63083e-06
6.7051e-06
6.76284e-06
6.8068e-06
6.83942e-06
6.86073e-06
8.49486e-05
5.30527e-05
3.70434e-05
2.78512e-05
2.20524e-05
1.81317e-05
1.53359e-05
1.32571e-05
1.16589e-05
1.0397e-05
9.38008e-06
8.54817e-06
7.86063e-06
7.28928e-06
6.8138e-06
6.42085e-06
6.10167e-06
5.84942e-06
5.65955e-06
5.5289e-06
5.4574e-06
5.44951e-06
5.51749e-06
5.68714e-06
6.00251e-06
6.49483e-06
6.96375e-06
6.55989e-06
4.72087e-06
2.55567e-06
1.03802e-06
3.25171e-07
5.70354e-08
7.21012e-09
1.80925e-09
1.78681e-09
6.9211e-09
4.24296e-08
3.0379e-07
5.35308e-07
1.16793e-06
2.18729e-06
3.57264e-06
5.24846e-06
7.06461e-06
8.78328e-06
1.01906e-05
1.1118e-05
1.1454e-05
1.1204e-05
1.04736e-05
9.42913e-06
8.25124e-06
7.09784e-06
6.08189e-06
5.26583e-06
4.6701e-06
4.28626e-06
4.08914e-06
4.04595e-06
4.12257e-06
4.28401e-06
4.49506e-06
4.72991e-06
4.9689e-06
5.19763e-06
5.40659e-06
5.59041e-06
5.74703e-06
5.87682e-06
5.98173e-06
6.06465e-06
6.12879e-06
6.17703e-06
6.20899e-06
8.49466e-05
5.30319e-05
3.69906e-05
2.77657e-05
2.19401e-05
1.80001e-05
1.51928e-05
1.31088e-05
1.15098e-05
1.02501e-05
9.23647e-06
8.40767e-06
7.72235e-06
7.15214e-06
6.67737e-06
6.28486e-06
5.96579e-06
5.7142e-06
5.52662e-06
5.40191e-06
5.34208e-06
5.35438e-06
5.45575e-06
5.68042e-06
6.08265e-06
6.66185e-06
6.93871e-06
5.62302e-06
2.96108e-06
9.88725e-07
1.61714e-07
1.23643e-08
0.00015
0.00015
0.00015
0.00015
0.00015
6.62595e-07
1.57809e-08
7.12591e-08
2.98715e-07
7.65555e-07
1.45094e-06
2.3589e-06
3.41486e-06
4.50436e-06
5.49604e-06
6.25546e-06
6.69769e-06
6.78029e-06
6.53606e-06
6.05123e-06
5.43442e-06
4.79104e-06
4.20416e-06
3.72994e-06
3.39318e-06
3.19821e-06
3.13507e-06
3.18547e-06
3.32714e-06
3.5365e-06
3.79146e-06
4.06948e-06
4.35112e-06
4.62246e-06
4.87327e-06
5.0971e-06
5.29079e-06
5.45385e-06
5.58775e-06
5.69522e-06
5.7796e-06
5.84397e-06
5.88745e-06
8.49456e-05
5.30203e-05
3.69602e-05
2.77149e-05
2.18707e-05
1.79155e-05
1.50967e-05
1.30048e-05
1.14012e-05
1.01395e-05
9.12587e-06
8.29845e-06
7.61543e-06
7.04821e-06
6.57705e-06
6.18881e-06
5.87449e-06
5.6283e-06
5.44712e-06
5.33057e-06
5.282e-06
5.31118e-06
5.44005e-06
5.71212e-06
6.18889e-06
6.79693e-06
6.63532e-06
4.26925e-06
1.34759e-06
1.64891e-07
4.80962e-09
0.00015
0.00015
0.00015
0.00015
0.00015
0.00015
0.00015
0.00015
4.36599e-09
4.79396e-08
2.0764e-07
4.98986e-07
1.03232e-06
1.66567e-06
2.35932e-06
3.02601e-06
3.57623e-06
3.94701e-06
4.10127e-06
4.0485e-06
3.83515e-06
3.52661e-06
3.1903e-06
2.88283e-06
2.64393e-06
2.49493e-06
2.44267e-06
2.48385e-06
2.60866e-06
2.80334e-06
3.05185e-06
3.33728e-06
3.64294e-06
3.95363e-06
4.25503e-06
4.53671e-06
4.79136e-06
5.01479e-06
5.20553e-06
5.36433e-06
5.49349e-06
5.59621e-06
5.67553e-06
5.72985e-06
8.4945e-05
5.30134e-05
3.69419e-05
2.76839e-05
2.18278e-05
1.78623e-05
1.5035e-05
1.29364e-05
1.13279e-05
1.00629e-05
9.04749e-06
8.21955e-06
7.53713e-06
6.97152e-06
6.50296e-06
6.1181e-06
5.80781e-06
5.56625e-06
5.39035e-06
5.28001e-06
5.23943e-06
5.28048e-06
5.42976e-06
5.73944e-06
6.27105e-06
6.8263e-06
6.02889e-06
2.74784e-06
3.18011e-07
1.41557e-08
0.00015
0.00015
0.00015
0.00015
0.00015
0.00015
0.00015
0.00015
0.00015
0.00015
2.15975e-08
7.17868e-08
1.68368e-07
4.03111e-07
7.50519e-07
1.19398e-06
1.6499e-06
2.0267e-06
2.29806e-06
2.44041e-06
2.45997e-06
2.3844e-06
2.25312e-06
2.10728e-06
1.98209e-06
1.90282e-06
1.88432e-06
1.93277e-06
2.04798e-06
2.22531e-06
2.45675e-06
2.73171e-06
3.0378e-06
3.36174e-06
3.69026e-06
4.01132e-06
4.31417e-06
4.59097e-06
4.83665e-06
5.04884e-06
5.22752e-06
5.37447e-06
5.49255e-06
5.58465e-06
5.64839e-06
8.49447e-05
5.30093e-05
3.6931e-05
2.76653e-05
2.18019e-05
1.78299e-05
1.49971e-05
1.28939e-05
1.12817e-05
1.0014e-05
8.9967e-06
8.16767e-06
7.48497e-06
6.91986e-06
6.45258e-06
6.06961e-06
5.76172e-06
5.52296e-06
5.35016e-06
5.24332e-06
5.20715e-06
5.25505e-06
5.4174e-06
5.7528e-06
6.31259e-06
6.73292e-06
5.22558e-06
1.37755e-06
6.77802e-08
0.00015
0.00015
0.00015
0.00015
0.00015
0.00015
0.00015
0.00015
0.00015
0.00015
0.00015
4.91586e-08
5.65252e-08
6.85404e-08
1.66351e-07
3.3778e-07
5.71704e-07
8.31758e-07
1.0783e-06
1.28033e-06
1.39589e-06
1.44538e-06
1.44735e-06
1.42452e-06
1.39986e-06
1.39286e-06
1.41832e-06
1.48589e-06
1.60077e-06
1.76462e-06
1.97603e-06
2.23082e-06
2.52213e-06
2.84076e-06
3.17583e-06
3.5157e-06
3.84898e-06
4.16561e-06
4.45734e-06
4.71852e-06
4.94608e-06
5.13937e-06
5.29966e-06
5.42951e-06
5.53155e-06
5.60272e-06
8.49445e-05
5.30071e-05
3.69251e-05
2.76553e-05
2.17878e-05
1.78123e-05
1.49764e-05
1.28706e-05
1.12564e-05
9.98697e-06
8.9684e-06
8.13857e-06
7.45549e-06
6.89044e-06
6.42369e-06
6.04158e-06
5.73483e-06
5.49738e-06
5.32597e-06
5.22055e-06
5.1861e-06
5.23696e-06
5.4059e-06
5.75456e-06
6.31632e-06
6.5609e-06
4.32938e-06
5.95497e-07
2.17272e-08
0.00015
0.00015
0.00015
0.00015
0.00015
0.00015
0.00015
0.00015
0.00015
0.00015
0.00015
2.03033e-06
9.72864e-08
5.1608e-08
7.9873e-08
1.55407e-07
2.67522e-07
4.02169e-07
5.42491e-07
6.70863e-07
7.77202e-07
8.45086e-07
8.92559e-07
9.33549e-07
9.80777e-07
1.04389e-06
1.13138e-06
1.24991e-06
1.40419e-06
1.59692e-06
1.8286e-06
2.09721e-06
2.39803e-06
2.72378e-06
3.06504e-06
3.41122e-06
3.7515e-06
4.07594e-06
4.37634e-06
4.64672e-06
4.88363e-06
5.086e-06
5.25475e-06
5.39221e-06
5.50079e-06
5.57691e-06
8.49444e-05
5.30063e-05
3.69232e-05
2.7652e-05
2.17833e-05
1.78067e-05
1.49698e-05
1.28632e-05
1.12482e-05
9.97828e-06
8.95931e-06
8.12921e-06
7.44603e-06
6.88104e-06
6.41446e-06
6.03264e-06
5.72625e-06
5.48919e-06
5.31814e-06
5.213e-06
5.1788e-06
5.23018e-06
5.40073e-06
5.75279e-06
6.30765e-06
6.43722e-06
3.78836e-06
3.79e-07
1.178e-08
0.00015
0.00015
0.00015
0.00015
0.00015
0.00015
0.00015
0.00015
0.00015
0.00015
0.00015
1.33883e-07
1.56798e-08
3.99205e-08
5.30091e-08
9.64258e-08
1.62345e-07
2.43646e-07
3.34125e-07
4.27297e-07
5.19713e-07
5.98116e-07
6.65985e-07
7.344e-07
8.11974e-07
9.05901e-07
1.02034e-06
1.16105e-06
1.33253e-06
1.53786e-06
1.77824e-06
2.0525e-06
2.3568e-06
2.68463e-06
3.0273e-06
3.37474e-06
3.71649e-06
4.04281e-06
4.34552e-06
4.61865e-06
4.8586e-06
5.06415e-06
5.23605e-06
5.37648e-06
5.48773e-06
5.56592e-06
8.49445e-05
5.30071e-05
3.69251e-05
2.76553e-05
2.17878e-05
1.78123e-05
1.49764e-05
1.28706e-05
1.12564e-05
9.98699e-06
8.96846e-06
8.13868e-06
7.4557e-06
6.89079e-06
6.42421e-06
6.0423e-06
5.73577e-06
5.4985e-06
5.32719e-06
5.22174e-06
5.18702e-06
5.23734e-06
5.40564e-06
5.75547e-06
6.33282e-06
6.64809e-06
4.47778e-06
6.14023e-07
2.23265e-08
0.00015
0.00015
0.00015
0.00015
0.00015
0.00015
0.00015
0.00015
0.00015
0.00015
0.00015
2.02854e-06
9.14907e-08
4.23789e-08
7.0521e-08
1.36211e-07
2.29953e-07
3.40361e-07
4.55288e-07
5.636e-07
6.58067e-07
7.24802e-07
7.80556e-07
8.3665e-07
9.02609e-07
9.85235e-07
1.09083e-06
1.22473e-06
1.39097e-06
1.59216e-06
1.82902e-06
2.09997e-06
2.40087e-06
2.72505e-06
3.06375e-06
3.40695e-06
3.74431e-06
4.06629e-06
4.36489e-06
4.63426e-06
4.8709e-06
5.07362e-06
5.24319e-06
5.38178e-06
5.49163e-06
5.56885e-06
8.49447e-05
5.30093e-05
3.6931e-05
2.76653e-05
2.18019e-05
1.78299e-05
1.4997e-05
1.28939e-05
1.12817e-05
1.00141e-05
8.9968e-06
8.1679e-06
7.48537e-06
6.92051e-06
6.45357e-06
6.07099e-06
5.76351e-06
5.5251e-06
5.3525e-06
5.24555e-06
5.20882e-06
5.25557e-06
5.41633e-06
5.75235e-06
6.33417e-06
6.87281e-06
5.53583e-06
1.45704e-06
6.84814e-08
0.00015
0.00015
0.00015
0.00015
0.00015
0.00015
0.00015
0.00015
0.00015
0.00015
0.00015
4.72032e-08
2.79584e-08
5.56149e-08
1.37926e-07
2.7451e-07
4.55342e-07
6.52567e-07
8.36922e-07
9.88583e-07
1.07794e-06
1.12663e-06
1.15021e-06
1.1653e-06
1.1874e-06
1.22903e-06
1.29967e-06
1.40566e-06
1.55076e-06
1.73645e-06
1.96202e-06
2.22442e-06
2.51819e-06
2.83556e-06
3.16709e-06
3.50235e-06
3.831e-06
4.1437e-06
4.43274e-06
4.69258e-06
4.92008e-06
5.11441e-06
5.27654e-06
5.40875e-06
5.51336e-06
5.58672e-06
8.4945e-05
5.30134e-05
3.69419e-05
2.76839e-05
2.18278e-05
1.78623e-05
1.5035e-05
1.29364e-05
1.13279e-05
1.0063e-05
9.04765e-06
8.21987e-06
7.53771e-06
6.97246e-06
6.50438e-06
6.12008e-06
5.81037e-06
5.5693e-06
5.39365e-06
5.28314e-06
5.24172e-06
5.28105e-06
5.42777e-06
5.73642e-06
6.28705e-06
6.96524e-06
6.4232e-06
2.97079e-06
3.26174e-07
1.44016e-08
0.00015
0.00015
0.00015
0.00015
0.00015
0.00015
0.00015
0.00015
0.00015
0.00015
1.96391e-08
5.0757e-08
1.34458e-07
3.21196e-07
5.85944e-07
9.13807e-07
1.24035e-06
1.5019e-06
1.68783e-06
1.78781e-06
1.81137e-06
1.78103e-06
1.72485e-06
1.67009e-06
1.63893e-06
1.64673e-06
1.70231e-06
1.80934e-06
1.9676e-06
2.17397e-06
2.42275e-06
2.70599e-06
3.01392e-06
3.33567e-06
3.66003e-06
3.97651e-06
4.2757e-06
4.55026e-06
4.79533e-06
5.0085e-06
5.18947e-06
5.33964e-06
5.4615e-06
5.5575e-06
5.62448e-06
8.49456e-05
5.30203e-05
3.69602e-05
2.77149e-05
2.18706e-05
1.79155e-05
1.50967e-05
1.30048e-05
1.14012e-05
1.01396e-05
9.12608e-06
8.29888e-06
7.61621e-06
7.04945e-06
6.57891e-06
6.19138e-06
5.87779e-06
5.63221e-06
5.45132e-06
5.3345e-06
5.28481e-06
5.31178e-06
5.43725e-06
5.70638e-06
6.19453e-06
6.89776e-06
7.00814e-06
4.632e-06
1.38203e-06
1.58779e-07
4.62531e-09
0.00015
0.00015
0.00015
0.00015
0.00015
0.00015
0.00015
0.00015
3.52309e-09
3.68309e-08
1.55197e-07
3.92991e-07
8.00255e-07
1.26072e-06
1.75002e-06
2.20935e-06
2.5812e-06
2.82821e-06
2.93113e-06
2.90286e-06
2.77932e-06
2.60627e-06
2.42815e-06
2.28069e-06
2.18801e-06
2.16247e-06
2.20758e-06
2.32072e-06
2.49513e-06
2.72114e-06
2.98711e-06
3.28029e-06
3.58763e-06
3.89687e-06
4.19616e-06
4.4763e-06
4.73076e-06
4.95561e-06
5.14934e-06
5.31234e-06
5.4465e-06
5.55457e-06
5.63912e-06
5.69762e-06
8.49466e-05
5.30319e-05
3.69906e-05
2.77657e-05
2.194e-05
1.80001e-05
1.51928e-05
1.31087e-05
1.15099e-05
1.02502e-05
9.23679e-06
8.4083e-06
7.72344e-06
7.15385e-06
6.67986e-06
6.28823e-06
5.97002e-06
5.7191e-06
5.53177e-06
5.40662e-06
5.34536e-06
5.35496e-06
5.45221e-06
5.67231e-06
6.0783e-06
6.71633e-06
7.20907e-06
6.01874e-06
3.05581e-06
9.52814e-07
1.51577e-07
1.15919e-08
0.00015
0.00015
0.00015
0.00015
0.00015
6.40514e-07
9.44578e-09
5.50397e-08
2.35092e-07
6.03506e-07
1.12062e-06
1.78192e-06
2.53224e-06
3.29153e-06
3.9726e-06
4.48643e-06
4.7812e-06
4.83464e-06
4.67632e-06
4.36984e-06
3.99018e-06
3.60713e-06
3.27353e-06
3.02425e-06
2.87358e-06
2.82333e-06
2.86644e-06
2.99042e-06
3.17983e-06
3.41783e-06
3.68831e-06
3.97403e-06
4.25945e-06
4.53303e-06
4.78622e-06
5.01344e-06
5.2118e-06
5.38069e-06
5.52122e-06
5.63568e-06
5.72698e-06
5.79777e-06
5.84612e-06
8.49486e-05
5.30527e-05
3.70434e-05
2.78512e-05
2.20524e-05
1.81317e-05
1.53359e-05
1.32571e-05
1.1659e-05
1.03972e-05
9.38064e-06
8.54921e-06
7.86234e-06
7.29186e-06
6.81739e-06
6.42552e-06
6.10728e-06
5.85566e-06
5.66585e-06
5.53443e-06
5.46103e-06
5.44984e-06
5.51297e-06
5.67676e-06
5.99021e-06
6.51139e-06
7.11517e-06
6.8851e-06
4.88326e-06
2.50807e-06
9.69121e-07
2.99514e-07
5.29204e-08
6.70914e-09
1.67159e-09
1.65714e-09
6.33603e-09
3.53556e-08
1.31349e-07
4.15053e-07
9.27705e-07
1.70334e-06
2.72624e-06
3.94025e-06
5.23772e-06
6.44925e-06
7.43121e-06
8.07079e-06
8.29719e-06
8.12274e-06
7.62818e-06
6.93298e-06
6.16213e-06
5.42167e-06
4.78523e-06
4.29223e-06
3.95477e-06
3.76648e-06
3.7102e-06
3.76366e-06
3.90341e-06
4.10434e-06
4.33974e-06
4.58967e-06
4.83875e-06
5.07548e-06
5.29202e-06
5.48382e-06
5.649e-06
5.78778e-06
5.90177e-06
5.99348e-06
6.06579e-06
6.12124e-06
6.15832e-06
8.49526e-05
5.30932e-05
3.7139e-05
2.79953e-05
2.22286e-05
1.83235e-05
1.55308e-05
1.3448e-05
1.18435e-05
1.05771e-05
9.55972e-06
8.73264e-06
8.05554e-06
7.49975e-06
7.04366e-06
6.67181e-06
6.37375e-06
6.13952e-06
5.96098e-06
5.83277e-06
5.75191e-06
5.71977e-06
5.74485e-06
5.84707e-06
6.06375e-06
6.4477e-06
6.98846e-06
7.26938e-06
6.38924e-06
4.49945e-06
2.64997e-06
1.3994e-06
6.30323e-07
2.50373e-07
1.06981e-07
7.18915e-08
1.3728e-07
3.47219e-07
8.14268e-07
1.66426e-06
2.98846e-06
4.7843e-06
6.94532e-06
9.27781e-06
1.15121e-05
1.3332e-05
1.45395e-05
1.50176e-05
1.47409e-05
1.38369e-05
1.25117e-05
1.09929e-05
9.48149e-06
8.12405e-06
7.00379e-06
6.14938e-06
5.55255e-06
5.18457e-06
5.00724e-06
4.98366e-06
5.06368e-06
5.20906e-06
5.39237e-06
5.59189e-06
5.79151e-06
5.98013e-06
6.15083e-06
6.30006e-06
6.42681e-06
6.5318e-06
6.61688e-06
6.68444e-06
6.73704e-06
6.7769e-06
6.80294e-06
8.49611e-05
5.31741e-05
3.73096e-05
2.82216e-05
2.24734e-05
1.85636e-05
1.5758e-05
1.36649e-05
1.206e-05
1.0807e-05
9.81567e-06
9.02744e-06
8.40088e-06
7.90456e-06
7.51258e-06
7.20629e-06
6.97132e-06
6.79273e-06
6.65738e-06
6.55553e-06
6.48268e-06
6.43752e-06
6.42716e-06
6.46892e-06
6.59362e-06
6.8458e-06
7.25403e-06
7.67604e-06
7.57738e-06
6.56423e-06
5.01734e-06
3.54982e-06
2.41134e-06
1.65597e-06
1.24146e-06
1.09253e-06
1.37404e-06
2.26093e-06
3.97597e-06
6.65186e-06
1.02616e-05
1.45568e-05
1.90903e-05
2.32868e-05
2.65902e-05
2.8593e-05
2.91214e-05
2.82274e-05
2.61611e-05
2.33182e-05
2.01372e-05
1.70016e-05
1.41875e-05
1.18491e-05
1.00327e-05
8.70944e-06
7.81134e-06
7.2654e-06
6.97885e-06
6.86468e-06
6.86893e-06
6.94736e-06
7.06805e-06
7.20729e-06
7.34909e-06
7.48312e-06
7.60358e-06
7.70782e-06
7.79533e-06
7.86698e-06
7.92434e-06
7.96938e-06
8.00408e-06
8.03013e-06
8.04658e-06
8.49812e-05
5.33325e-05
3.75742e-05
2.85044e-05
2.27337e-05
1.88015e-05
1.59939e-05
1.39246e-05
1.23746e-05
1.12079e-05
1.03274e-05
9.66941e-06
9.18667e-06
8.84111e-06
8.6014e-06
8.44661e-06
8.35013e-06
8.29014e-06
8.24892e-06
8.21427e-06
8.18015e-06
8.148e-06
8.12759e-06
8.13839e-06
8.21089e-06
8.3862e-06
8.70419e-06
9.14077e-06
9.46361e-06
9.27802e-06
8.48181e-06
7.38216e-06
6.35435e-06
5.62997e-06
5.34507e-06
5.76029e-06
7.86639e-06
1.2066e-05
1.85013e-05
2.67841e-05
3.61071e-05
4.53216e-05
5.31696e-05
5.86173e-05
6.1032e-05
6.0293e-05
5.67664e-05
5.11494e-05
4.42967e-05
3.70911e-05
3.02882e-05
2.44044e-05
1.96772e-05
1.61123e-05
1.35696e-05
1.18521e-05
1.07627e-05
1.01004e-05
9.73226e-06
9.55633e-06
9.50165e-06
9.52384e-06
9.5881e-06
9.67161e-06
9.76011e-06
9.84504e-06
9.92172e-06
9.98804e-06
1.00435e-05
1.00888e-05
1.01249e-05
1.01532e-05
1.0175e-05
1.01915e-05
1.02017e-05
8.50293e-05
5.35908e-05
3.78413e-05
2.87125e-05
2.29226e-05
1.90353e-05
1.63428e-05
1.44351e-05
1.30807e-05
1.21373e-05
1.15082e-05
1.11228e-05
1.09245e-05
1.08656e-05
1.09083e-05
1.10161e-05
1.11525e-05
1.1295e-05
1.14291e-05
1.15488e-05
1.16562e-05
1.1762e-05
1.18864e-05
1.206e-05
1.23252e-05
1.2737e-05
1.33587e-05
1.42375e-05
1.53344e-05
1.64594e-05
1.7398e-05
1.81995e-05
1.92355e-05
2.09917e-05
2.41568e-05
3.12285e-05
4.38313e-05
6.14075e-05
8.21573e-05
0.00010326
0.000121734
0.00013491
0.00014094
0.000139411
0.000130976
0.000117202
0.000100183
8.21261e-05
6.49668e-05
5.01295e-05
3.83164e-05
2.95521e-05
2.34088e-05
1.92934e-05
1.6646e-05
1.49938e-05
1.39842e-05
1.33967e-05
1.30797e-05
1.2932e-05
1.28872e-05
1.29011e-05
1.29467e-05
1.3007e-05
1.30713e-05
1.31334e-05
1.31895e-05
1.32383e-05
1.32793e-05
1.33131e-05
1.33403e-05
1.3362e-05
1.33792e-05
1.33925e-05
1.34015e-05
8.51358e-05
5.3714e-05
3.78172e-05
2.87386e-05
2.31967e-05
1.95835e-05
1.71873e-05
1.561e-05
1.46147e-05
1.40542e-05
1.3826e-05
1.38499e-05
1.40573e-05
1.43907e-05
1.48048e-05
1.52507e-05
1.57106e-05
1.61811e-05
1.66713e-05
1.72032e-05
1.7812e-05
1.85481e-05
1.94814e-05
2.07089e-05
2.23661e-05
2.46411e-05
2.77931e-05
3.21642e-05
3.81649e-05
4.62026e-05
5.65658e-05
6.98458e-05
8.7187e-05
0.000109795
0.000140781
0.000184538
0.00023509
0.000286374
0.000330082
0.000358751
0.000367554
0.000354915
0.000323037
0.000278026
0.000226863
0.0001762
0.000131163
9.46979e-05
6.74496e-05
4.843e-05
3.58615e-05
2.78875e-05
2.29393e-05
1.99334e-05
1.81558e-05
1.71399e-05
1.65816e-05
1.63171e-05
1.62317e-05
1.62513e-05
1.63265e-05
1.64264e-05
1.65324e-05
1.66352e-05
1.67312e-05
1.68182e-05
1.68938e-05
1.69579e-05
1.70113e-05
1.7055e-05
1.70903e-05
1.71185e-05
1.7141e-05
1.71589e-05
1.71725e-05
8.55201e-05
5.31669e-05
3.76505e-05
2.91191e-05
2.39313e-05
2.06806e-05
1.8635e-05
1.7398e-05
1.67482e-05
1.65435e-05
1.66765e-05
1.70576e-05
1.76112e-05
1.82787e-05
1.90245e-05
1.98356e-05
2.07274e-05
2.174e-05
2.29411e-05
2.44323e-05
2.63601e-05
2.89367e-05
3.24746e-05
3.74422e-05
4.4551e-05
5.48852e-05
7.00824e-05
9.25484e-05
0.000125603
0.000173268
0.000237631
0.00032444
0.000441455
0.000582536
0.00073285
0.000864523
0.000964593
0.00101202
0.000996275
0.000918239
0.000790835
0.000632004
0.000464731
0.000322084
0.000215395
0.00014216
9.44364e-05
6.41832e-05
4.52868e-05
3.35935e-05
2.64506e-05
2.2167e-05
1.96633e-05
1.82579e-05
1.75414e-05
1.72646e-05
1.7266e-05
1.74431e-05
1.77216e-05
1.80473e-05
1.838e-05
1.86889e-05
1.89509e-05
1.91643e-05
1.93479e-05
1.9504e-05
1.96361e-05
1.97457e-05
1.98347e-05
1.99063e-05
1.99632e-05
2.00082e-05
2.00438e-05
2.00721e-05
2.00944e-05
)
;

boundaryField
{
    ibCylinder
    {
        type            immersedBoundaryKqRWallFunction;
        patchType       immersedBoundary;
        setDeadValue    true;
        deadValue       0.00015;
        value           nonuniform List<scalar> 0();
    }
    in
    {
        type            fixedValue;
        value           uniform 0.00015;
    }
    out
    {
        type            inletOutlet;
        inletValue      uniform 0.00015;
        value           nonuniform List<scalar> 
25
(
2.00495e-05
1.71541e-05
1.34185e-05
1.02465e-05
8.10432e-06
6.86073e-06
6.20899e-06
5.88745e-06
5.72985e-06
5.64839e-06
5.60272e-06
5.57691e-06
5.56592e-06
5.56885e-06
5.58672e-06
5.62448e-06
5.69762e-06
5.84612e-06
6.15832e-06
6.80294e-06
8.04658e-06
1.02017e-05
1.34015e-05
1.71725e-05
2.00944e-05
)
;
    }
    top
    {
        type            zeroGradient;
    }
    bottom
    {
        type            zeroGradient;
    }
    frontAndBack
    {
        type            empty;
    }
}


// ************************************************************************* //
