/*--------------------------------*- C++ -*----------------------------------*\
| =========                 |                                                 |
| \\      /  F ield         | OpenFOAM: The Open Source CFD Toolbox           |
|  \\    /   O peration     | Version:  2206                                  |
|   \\  /    A nd           | Website:  www.openfoam.com                      |
|    \\/     M anipulation  |                                                 |
\*---------------------------------------------------------------------------*/
FoamFile
{
    version     2.0;
    format      ascii;
    arch        "LSB;label=32;scalar=64";
    class       volScalarField;
    location    "0.9";
    object      nut;
}
// * * * * * * * * * * * * * * * * * * * * * * * * * * * * * * * * * * * * * //

dimensions      [0 2 -1 0 0 0 0];

internalField   nonuniform List<scalar> 
1875
(
2.91406e-07
2.88041e-07
2.94007e-07
3.06403e-07
3.22724e-07
3.42808e-07
3.66861e-07
3.95579e-07
4.29926e-07
4.70568e-07
5.17423e-07
5.69526e-07
6.25194e-07
6.82418e-07
7.3932e-07
7.94713e-07
8.48392e-07
9.01119e-07
9.54662e-07
1.01179e-06
1.07634e-06
1.15339e-06
1.24967e-06
1.37411e-06
1.5386e-06
1.75867e-06
2.05393e-06
2.44723e-06
2.96097e-06
3.60863e-06
4.36946e-06
5.25375e-06
6.27835e-06
7.36274e-06
8.4123e-06
9.29416e-06
9.96723e-06
1.03364e-05
1.03411e-05
9.94963e-06
9.17631e-06
8.06785e-06
6.72114e-06
5.36585e-06
4.16333e-06
3.18835e-06
2.44485e-06
1.89993e-06
1.51248e-06
1.24552e-06
1.06919e-06
9.59176e-07
8.95541e-07
8.62716e-07
8.4976e-07
8.49302e-07
8.56309e-07
8.67518e-07
8.80621e-07
8.9403e-07
9.06668e-07
9.17801e-07
9.2695e-07
9.34238e-07
9.4031e-07
9.45324e-07
9.49465e-07
9.52827e-07
9.55518e-07
9.57652e-07
9.59332e-07
9.6065e-07
9.6169e-07
9.62524e-07
9.63177e-07
2.90328e-07
2.83173e-07
2.79853e-07
2.80706e-07
2.86013e-07
2.95017e-07
3.07948e-07
3.25112e-07
3.46926e-07
3.73828e-07
4.06009e-07
4.43187e-07
4.84515e-07
5.2871e-07
5.74252e-07
6.19019e-07
6.61921e-07
7.02411e-07
7.4055e-07
7.77027e-07
8.13137e-07
8.50778e-07
8.9252e-07
9.41731e-07
1.00277e-06
1.08113e-06
1.18322e-06
1.31473e-06
1.4759e-06
1.65557e-06
1.8335e-06
2.00994e-06
2.22028e-06
2.51737e-06
2.95492e-06
3.56335e-06
4.20954e-06
4.81289e-06
5.289e-06
5.5777e-06
5.64869e-06
5.49769e-06
5.14581e-06
4.64483e-06
4.05324e-06
3.42894e-06
2.82447e-06
2.28215e-06
1.82864e-06
1.47416e-06
1.21468e-06
1.03672e-06
9.22002e-07
8.53408e-07
8.16239e-07
7.99588e-07
7.95305e-07
7.98526e-07
8.05698e-07
8.14527e-07
8.2354e-07
8.31917e-07
8.39269e-07
8.45509e-07
8.50723e-07
8.55029e-07
8.5851e-07
8.61292e-07
8.63495e-07
8.65223e-07
8.66569e-07
8.67615e-07
8.68442e-07
8.69138e-07
8.69888e-07
2.9004e-07
2.82059e-07
2.76484e-07
2.73066e-07
2.7186e-07
2.72952e-07
2.76574e-07
2.82809e-07
2.91936e-07
3.04285e-07
3.20108e-07
3.39506e-07
3.62316e-07
3.88068e-07
4.16143e-07
4.45514e-07
4.74795e-07
5.02974e-07
5.29258e-07
5.53195e-07
5.74707e-07
5.94133e-07
6.12241e-07
6.30219e-07
6.49624e-07
6.72063e-07
6.97751e-07
7.20407e-07
7.17797e-07
6.59738e-07
5.53274e-07
4.48319e-07
3.76729e-07
3.59536e-07
3.91394e-07
5.05439e-07
7.13429e-07
1.01282e-06
1.37625e-06
1.75685e-06
2.10324e-06
2.37091e-06
2.53017e-06
2.57276e-06
2.50629e-06
2.35021e-06
2.1307e-06
1.87604e-06
1.61297e-06
1.36478e-06
1.14865e-06
9.74186e-07
8.43471e-07
7.53031e-07
6.96619e-07
6.65799e-07
6.52309e-07
6.50604e-07
6.56147e-07
6.65575e-07
6.76527e-07
6.87453e-07
6.97508e-07
7.06276e-07
7.13637e-07
7.19643e-07
7.24424e-07
7.28161e-07
7.31036e-07
7.33222e-07
7.34868e-07
7.361e-07
7.37028e-07
7.3776e-07
7.38455e-07
2.89951e-07
2.81693e-07
2.75502e-07
2.70874e-07
2.67597e-07
2.65595e-07
2.64894e-07
2.65576e-07
2.67831e-07
2.71872e-07
2.77801e-07
2.85763e-07
2.95813e-07
3.07863e-07
3.21699e-07
3.37198e-07
3.5374e-07
3.70671e-07
3.87314e-07
4.03079e-07
4.1755e-07
4.30581e-07
4.42365e-07
4.53473e-07
4.64767e-07
4.76644e-07
4.8524e-07
4.70206e-07
3.90857e-07
2.58762e-07
1.48995e-07
8.75328e-08
5.37055e-08
4.07657e-08
3.788e-08
4.37832e-08
6.5553e-08
1.12411e-07
1.93773e-07
3.14337e-07
4.7132e-07
6.5227e-07
8.36081e-07
9.98747e-07
1.11962e-06
1.18635e-06
1.19658e-06
1.15654e-06
1.07808e-06
9.76012e-07
8.65249e-07
7.58546e-07
6.65107e-07
5.9027e-07
5.35929e-07
5.01516e-07
4.84788e-07
4.80926e-07
4.86347e-07
4.97771e-07
5.12424e-07
5.28284e-07
5.43783e-07
5.57933e-07
5.70235e-07
5.8053e-07
5.88882e-07
5.95487e-07
6.00598e-07
6.04478e-07
6.07378e-07
6.09517e-07
6.11081e-07
6.12234e-07
6.13119e-07
2.89925e-07
2.81554e-07
2.75132e-07
2.70119e-07
2.66183e-07
2.63138e-07
2.60899e-07
2.59453e-07
2.58837e-07
2.59128e-07
2.60396e-07
2.62753e-07
2.66294e-07
2.71071e-07
2.77053e-07
2.84268e-07
2.92708e-07
3.02167e-07
3.12359e-07
3.22992e-07
3.33856e-07
3.44811e-07
3.55982e-07
3.67813e-07
3.809e-07
3.9418e-07
3.95317e-07
3.39275e-07
2.04342e-07
9.1393e-08
3.81735e-08
1.80112e-08
7.83843e-09
4.3485e-09
3.29245e-09
3.40182e-09
5.10389e-09
1.03468e-08
2.27042e-08
4.68691e-08
8.76633e-08
1.48218e-07
2.27691e-07
3.20032e-07
4.14921e-07
5.00224e-07
5.65281e-07
6.03166e-07
6.11976e-07
5.95006e-07
5.59179e-07
5.12788e-07
4.63695e-07
4.18259e-07
3.80874e-07
3.54007e-07
3.38546e-07
3.34553e-07
3.40175e-07
3.52563e-07
3.69686e-07
3.89421e-07
4.09926e-07
4.29729e-07
4.47825e-07
4.63636e-07
4.7695e-07
4.87819e-07
4.96459e-07
5.0317e-07
5.08278e-07
5.12096e-07
5.14906e-07
5.16947e-07
5.18362e-07
2.89917e-07
2.81502e-07
2.74974e-07
2.69791e-07
2.65607e-07
2.62198e-07
2.59423e-07
2.57205e-07
2.55513e-07
2.54353e-07
2.53766e-07
2.53812e-07
2.54565e-07
2.56105e-07
2.58502e-07
2.61869e-07
2.66367e-07
2.72046e-07
2.78913e-07
2.86975e-07
2.96235e-07
3.06772e-07
3.18842e-07
3.32949e-07
3.49372e-07
3.63644e-07
3.44883e-07
2.28828e-07
8.9031e-08
2.76359e-08
8.2836e-09
3.05039e-09
7.12416e-10
1.75059e-10
6.58041e-11
5.69647e-11
1.70745e-10
6.97276e-10
2.5614e-09
7.3736e-09
1.76871e-08
3.6339e-08
6.53092e-08
1.05077e-07
1.53683e-07
2.06151e-07
2.56443e-07
2.98195e-07
3.26259e-07
3.38623e-07
3.36302e-07
3.22612e-07
3.02067e-07
2.79302e-07
2.58272e-07
2.41893e-07
2.32023e-07
2.296e-07
2.34764e-07
2.47146e-07
2.64984e-07
2.86445e-07
3.09867e-07
3.33647e-07
3.5644e-07
3.77268e-07
3.95536e-07
4.11006e-07
4.2371e-07
4.33866e-07
4.41795e-07
4.47856e-07
4.52401e-07
4.55737e-07
4.57996e-07
2.89914e-07
2.81481e-07
2.74903e-07
2.69635e-07
2.65328e-07
2.61756e-07
2.58767e-07
2.56259e-07
2.54172e-07
2.52481e-07
2.51195e-07
2.50353e-07
2.50021e-07
2.50287e-07
2.51253e-07
2.53082e-07
2.55978e-07
2.60116e-07
2.65675e-07
2.72809e-07
2.81705e-07
2.92624e-07
3.05997e-07
3.22443e-07
3.4149e-07
3.51024e-07
2.90191e-07
1.29376e-07
3.18064e-08
6.69843e-09
1.15394e-09
2.34304e-10
1.33406e-11
5.76154e-13
7.24977e-14
9.93148e-14
9.8954e-13
1.61498e-11
3.44825e-10
1.34346e-09
4.37672e-09
1.12444e-08
2.32986e-08
4.14226e-08
6.56612e-08
9.44357e-08
1.25093e-07
1.54118e-07
1.77826e-07
1.93628e-07
2.00621e-07
1.99628e-07
1.92757e-07
1.82774e-07
1.72463e-07
1.64198e-07
1.5978e-07
1.60401e-07
1.66668e-07
1.78655e-07
1.95969e-07
2.17647e-07
2.42134e-07
2.67944e-07
2.93665e-07
3.18087e-07
3.40308e-07
3.59778e-07
3.76277e-07
3.89848e-07
4.00718e-07
4.09222e-07
4.15729e-07
4.20585e-07
4.23881e-07
2.89913e-07
2.81472e-07
2.7487e-07
2.69557e-07
2.65185e-07
2.61526e-07
2.58426e-07
2.55783e-07
2.53528e-07
2.51628e-07
2.50081e-07
2.48916e-07
2.48199e-07
2.48025e-07
2.48526e-07
2.49879e-07
2.52292e-07
2.5599e-07
2.61214e-07
2.68222e-07
2.77309e-07
2.88876e-07
3.03522e-07
3.2192e-07
3.41841e-07
3.36543e-07
2.18416e-07
6.076e-08
9.17884e-09
1.05839e-09
5.08222e-11
5.84348e-13
1e-06
1e-06
1e-06
1e-06
1e-06
5.2318e-12
2.24618e-12
8.16329e-11
9.18577e-10
3.84018e-09
9.7279e-09
1.93522e-08
3.27629e-08
4.94025e-08
6.80256e-08
8.6668e-08
1.03201e-07
1.15694e-07
1.23139e-07
1.25628e-07
1.24167e-07
1.20369e-07
1.16057e-07
1.12981e-07
1.12564e-07
1.15879e-07
1.23618e-07
1.36071e-07
1.5313e-07
1.74282e-07
1.98709e-07
2.25174e-07
2.52291e-07
2.78821e-07
3.03697e-07
3.26137e-07
3.45683e-07
3.62176e-07
3.75698e-07
3.86503e-07
3.94931e-07
4.01326e-07
4.05716e-07
2.89912e-07
2.81467e-07
2.74853e-07
2.69517e-07
2.65108e-07
2.614e-07
2.58239e-07
2.55522e-07
2.53181e-07
2.51181e-07
2.49522e-07
2.48233e-07
2.47382e-07
2.47073e-07
2.47451e-07
2.48702e-07
2.51044e-07
2.54719e-07
2.59997e-07
2.67175e-07
2.76616e-07
2.8882e-07
3.04529e-07
3.2431e-07
3.42445e-07
3.09542e-07
1.43468e-07
2.43349e-08
1.86089e-09
5.85333e-11
9.2118e-14
1e-06
1e-06
1e-06
1e-06
1e-06
1e-06
1e-06
1e-06
5.35535e-13
6.04009e-11
7.67013e-10
3.23665e-09
9.33667e-09
1.78172e-08
2.85011e-08
4.05343e-08
5.26971e-08
6.37467e-08
7.24922e-08
7.82802e-08
8.11187e-08
8.161e-08
8.07772e-08
7.98389e-08
8.00107e-08
8.23577e-08
8.77313e-08
9.6744e-08
1.09744e-07
1.26782e-07
1.47589e-07
1.71574e-07
1.97856e-07
2.2537e-07
2.52881e-07
2.79286e-07
3.03675e-07
3.2541e-07
3.44151e-07
3.59829e-07
3.7259e-07
3.82713e-07
3.90507e-07
3.95918e-07
2.89912e-07
2.81464e-07
2.74844e-07
2.69494e-07
2.65066e-07
2.6133e-07
2.58134e-07
2.55374e-07
2.52984e-07
2.50932e-07
2.49217e-07
2.47874e-07
2.46976e-07
2.46634e-07
2.47001e-07
2.48269e-07
2.50662e-07
2.54431e-07
2.59852e-07
2.67244e-07
2.77004e-07
2.89706e-07
3.06192e-07
3.26652e-07
3.39493e-07
2.68185e-07
8.39856e-08
8.19241e-09
1.70744e-10
1.02232e-12
1e-06
1e-06
1e-06
1e-06
1e-06
1e-06
1e-06
1e-06
1e-06
1e-06
6.28326e-12
1.43933e-10
8.80455e-10
3.60425e-09
8.88019e-09
1.64939e-08
2.51398e-08
3.33745e-08
4.07692e-08
4.66684e-08
5.08082e-08
5.33046e-08
5.46191e-08
5.54592e-08
5.6652e-08
5.90282e-08
6.33465e-08
7.02504e-08
8.02456e-08
9.36732e-08
1.10667e-07
1.31112e-07
1.54613e-07
1.80497e-07
2.0786e-07
2.35667e-07
2.62825e-07
2.88369e-07
3.11551e-07
3.31892e-07
3.49193e-07
3.63489e-07
3.7499e-07
3.83955e-07
3.9024e-07
2.89912e-07
2.81463e-07
2.74838e-07
2.69482e-07
2.65042e-07
2.61291e-07
2.58075e-07
2.55291e-07
2.52875e-07
2.50793e-07
2.4905e-07
2.47682e-07
2.46766e-07
2.46422e-07
2.46806e-07
2.48116e-07
2.50577e-07
2.54443e-07
2.59992e-07
2.67547e-07
2.77527e-07
2.90552e-07
3.0751e-07
3.27872e-07
3.31631e-07
2.18807e-07
4.55073e-08
2.17951e-09
2.29563e-11
1e-06
1e-06
1e-06
1e-06
1e-06
1e-06
1e-06
1e-06
1e-06
1e-06
1e-06
3.71149e-12
6.06773e-11
2.75584e-10
1.39146e-09
4.2543e-09
8.90729e-09
1.45102e-08
2.02655e-08
2.5695e-08
2.97758e-08
3.28494e-08
3.5166e-08
3.71113e-08
3.91798e-08
4.19208e-08
4.58954e-08
5.16401e-08
5.9646e-08
7.03394e-08
8.40496e-08
1.00962e-07
1.21064e-07
1.441e-07
1.69545e-07
1.96634e-07
2.2442e-07
2.5189e-07
2.78065e-07
3.02136e-07
3.23533e-07
3.41959e-07
3.57363e-07
3.69887e-07
3.79745e-07
3.86708e-07
2.89912e-07
2.81462e-07
2.74836e-07
2.69475e-07
2.65029e-07
2.61271e-07
2.58045e-07
2.55249e-07
2.52819e-07
2.50723e-07
2.48966e-07
2.47587e-07
2.46667e-07
2.46326e-07
2.46729e-07
2.48071e-07
2.50582e-07
2.54513e-07
2.60142e-07
2.67792e-07
2.77888e-07
2.91079e-07
3.08241e-07
3.27882e-07
3.20116e-07
1.71588e-07
2.24876e-08
4.92388e-10
3.72156e-12
1e-06
1e-06
1e-06
1e-06
1e-06
1e-06
1e-06
1e-06
1e-06
1e-06
1e-06
5.32444e-11
5.11783e-11
1.51638e-10
6.14831e-10
2.00692e-09
4.54187e-09
7.87155e-09
1.15078e-08
1.50849e-08
1.8476e-08
2.11772e-08
2.3628e-08
2.61984e-08
2.92421e-08
3.31155e-08
3.82067e-08
4.49207e-08
5.36632e-08
6.48201e-08
7.87199e-08
9.55816e-08
1.15455e-07
1.38166e-07
1.63283e-07
1.90126e-07
2.17817e-07
2.45379e-07
2.71847e-07
2.96386e-07
3.1838e-07
3.37472e-07
3.53556e-07
3.66727e-07
3.77162e-07
3.84572e-07
2.89912e-07
2.81462e-07
2.74835e-07
2.69473e-07
2.65026e-07
2.61264e-07
2.58035e-07
2.55236e-07
2.52801e-07
2.50702e-07
2.4894e-07
2.47559e-07
2.46639e-07
2.46303e-07
2.46715e-07
2.48072e-07
2.50604e-07
2.54562e-07
2.6022e-07
2.67902e-07
2.78033e-07
2.9127e-07
3.08472e-07
3.27577e-07
3.12749e-07
1.47836e-07
1.48585e-08
2.4136e-10
1.52413e-12
1e-06
1e-06
1e-06
1e-06
1e-06
1e-06
1e-06
1e-06
1e-06
1e-06
1e-06
2.16426e-13
9.56672e-13
4.07639e-11
3.15004e-10
1.21931e-09
2.84261e-09
5.01497e-09
7.50393e-09
1.01672e-08
1.30179e-08
1.57347e-08
1.83904e-08
2.13759e-08
2.49743e-08
2.9479e-08
3.51702e-08
4.24028e-08
5.15501e-08
6.29819e-08
7.70259e-08
9.39126e-08
1.13714e-07
1.36285e-07
1.61234e-07
1.87916e-07
2.15489e-07
2.42998e-07
2.69492e-07
2.94136e-07
3.16302e-07
3.35614e-07
3.51943e-07
3.65363e-07
3.76031e-07
3.83627e-07
2.89912e-07
2.81462e-07
2.74836e-07
2.69475e-07
2.65029e-07
2.61271e-07
2.58045e-07
2.55249e-07
2.52819e-07
2.50724e-07
2.48968e-07
2.47591e-07
2.46674e-07
2.4634e-07
2.4675e-07
2.48102e-07
2.50625e-07
2.54568e-07
2.60207e-07
2.6786e-07
2.77952e-07
2.9113e-07
3.08332e-07
3.28647e-07
3.25954e-07
1.84754e-07
2.48137e-08
5.06538e-10
3.82421e-12
1e-06
1e-06
1e-06
1e-06
1e-06
1e-06
1e-06
1e-06
1e-06
1e-06
1e-06
5.31974e-11
4.81244e-11
1.20557e-10
5.36119e-10
1.76272e-09
3.91404e-09
6.66656e-09
9.65397e-09
1.2664e-08
1.56328e-08
1.81553e-08
2.06663e-08
2.34991e-08
2.69532e-08
3.13223e-08
3.69341e-08
4.4143e-08
5.3316e-08
6.48119e-08
7.89424e-08
9.5919e-08
1.15793e-07
1.38401e-07
1.63333e-07
1.89939e-07
2.17375e-07
2.44696e-07
2.70968e-07
2.95375e-07
3.17306e-07
3.364e-07
3.52538e-07
3.658e-07
3.76345e-07
3.83855e-07
2.89912e-07
2.81463e-07
2.74838e-07
2.69482e-07
2.65042e-07
2.61291e-07
2.58075e-07
2.55292e-07
2.52875e-07
2.50795e-07
2.49054e-07
2.4769e-07
2.46781e-07
2.46447e-07
2.46847e-07
2.48175e-07
2.50658e-07
2.54546e-07
2.60113e-07
2.67674e-07
2.7764e-07
2.90632e-07
3.07614e-07
3.28842e-07
3.39999e-07
2.47116e-07
5.596e-08
2.29244e-09
2.31938e-11
1e-06
1e-06
1e-06
1e-06
1e-06
1e-06
1e-06
1e-06
1e-06
1e-06
1e-06
3.56386e-12
2.91149e-11
2.24161e-10
1.16727e-09
3.48529e-09
7.1219e-09
1.13948e-08
1.57187e-08
1.9817e-08
2.29706e-08
2.55981e-08
2.7969e-08
3.04192e-08
3.33394e-08
3.71458e-08
4.22647e-08
4.91156e-08
5.80995e-08
6.95796e-08
8.38468e-08
1.0107e-07
1.21244e-07
1.44136e-07
1.69271e-07
1.95943e-07
2.23277e-07
2.50325e-07
2.76169e-07
3.00028e-07
3.21342e-07
3.39803e-07
3.55338e-07
3.68057e-07
3.7814e-07
3.85304e-07
2.89912e-07
2.81464e-07
2.74844e-07
2.69494e-07
2.65066e-07
2.6133e-07
2.58134e-07
2.55375e-07
2.52986e-07
2.50935e-07
2.49223e-07
2.47886e-07
2.46997e-07
2.4667e-07
2.47058e-07
2.48353e-07
2.50777e-07
2.54576e-07
2.60021e-07
2.67418e-07
2.77155e-07
2.89799e-07
3.06254e-07
3.27366e-07
3.4654e-07
3.00026e-07
1.05819e-07
9.07257e-09
1.79001e-10
1.04008e-12
1e-06
1e-06
1e-06
1e-06
1e-06
1e-06
1e-06
1e-06
1e-06
1e-06
5.71353e-12
1.01395e-10
7.16695e-10
2.91918e-09
6.99879e-09
1.2674e-08
1.89122e-08
2.47097e-08
2.99059e-08
3.41653e-08
3.74281e-08
3.98883e-08
4.19508e-08
4.416e-08
4.71199e-08
5.14284e-08
5.76389e-08
6.62358e-08
7.76151e-08
9.20531e-08
1.0966e-07
1.30336e-07
1.53733e-07
1.7926e-07
2.06113e-07
2.33363e-07
2.60025e-07
2.85202e-07
3.08183e-07
3.28498e-07
3.45928e-07
3.60471e-07
3.72293e-07
3.81608e-07
3.88193e-07
2.89912e-07
2.81467e-07
2.74853e-07
2.69517e-07
2.65108e-07
2.61401e-07
2.5824e-07
2.55522e-07
2.53182e-07
2.51185e-07
2.4953e-07
2.48248e-07
2.4741e-07
2.47121e-07
2.47525e-07
2.4881e-07
2.51189e-07
2.549e-07
2.60203e-07
2.67383e-07
2.76788e-07
2.8891e-07
3.04525e-07
3.24643e-07
3.47087e-07
3.37255e-07
1.8288e-07
2.98144e-08
1.92603e-09
5.63637e-11
8.85879e-14
1e-06
1e-06
1e-06
1e-06
1e-06
1e-06
1e-06
1e-06
4.32145e-13
4.44103e-11
5.70882e-10
2.60298e-09
7.3424e-09
1.35926e-08
2.12041e-08
2.96023e-08
3.80082e-08
4.56551e-08
5.18331e-08
5.62304e-08
5.89838e-08
6.06073e-08
6.18659e-08
6.36279e-08
6.67461e-08
7.19709e-08
7.99163e-08
9.10363e-08
1.05593e-07
1.23618e-07
1.44877e-07
1.68864e-07
1.94824e-07
2.21832e-07
2.48819e-07
2.74789e-07
2.98908e-07
3.20577e-07
3.39451e-07
3.55427e-07
3.68598e-07
3.79193e-07
3.87467e-07
3.93271e-07
2.89913e-07
2.81472e-07
2.7487e-07
2.69557e-07
2.65185e-07
2.61526e-07
2.58427e-07
2.55784e-07
2.53531e-07
2.51634e-07
2.50092e-07
2.48938e-07
2.48237e-07
2.48088e-07
2.48622e-07
2.50014e-07
2.52469e-07
2.56206e-07
2.61452e-07
2.6845e-07
2.77484e-07
2.88938e-07
3.03431e-07
3.21889e-07
3.44141e-07
3.54273e-07
2.63364e-07
7.54784e-08
9.515e-09
1.00132e-09
4.76362e-11
5.47842e-13
1e-06
1e-06
1e-06
1e-06
1e-06
5.05746e-12
1.34447e-12
5.96443e-11
7.18589e-10
3.12045e-09
7.68128e-09
1.48053e-08
2.4451e-08
3.62043e-08
4.92313e-08
6.22192e-08
7.3787e-08
8.27179e-08
8.84641e-08
9.12276e-08
9.18014e-08
9.13529e-08
9.11558e-08
9.24246e-08
9.61482e-08
1.03091e-07
1.13756e-07
1.28355e-07
1.46788e-07
1.68628e-07
1.93195e-07
2.19457e-07
2.46224e-07
2.7241e-07
2.97074e-07
3.19503e-07
3.39254e-07
3.5614e-07
3.70194e-07
3.81608e-07
3.90666e-07
3.97659e-07
4.02516e-07
2.89914e-07
2.81481e-07
2.74903e-07
2.69635e-07
2.65328e-07
2.61756e-07
2.58767e-07
2.5626e-07
2.54175e-07
2.52489e-07
2.51213e-07
2.50387e-07
2.50078e-07
2.50377e-07
2.51384e-07
2.53261e-07
2.56201e-07
2.60373e-07
2.6594e-07
2.73045e-07
2.81855e-07
2.92621e-07
3.05782e-07
3.22089e-07
3.42124e-07
3.59873e-07
3.25104e-07
1.56245e-07
3.39583e-08
6.34077e-09
1.04668e-09
2.15817e-10
1.23781e-11
5.36121e-13
6.69814e-14
9.21074e-14
9.0589e-13
1.34573e-11
1.49012e-10
1.03795e-09
3.64597e-09
9.04157e-09
1.81149e-08
3.14607e-08
4.90461e-08
6.97001e-08
9.16026e-08
1.12345e-07
1.29435e-07
1.41196e-07
1.47142e-07
1.47978e-07
1.4526e-07
1.40955e-07
1.37005e-07
1.35064e-07
1.36398e-07
1.41866e-07
1.51916e-07
1.66602e-07
1.85621e-07
2.08201e-07
2.3305e-07
2.58912e-07
2.84589e-07
3.09037e-07
3.31454e-07
3.51324e-07
3.68405e-07
3.82691e-07
3.94347e-07
4.03647e-07
4.10914e-07
4.16447e-07
4.20241e-07
2.89917e-07
2.81502e-07
2.74974e-07
2.69791e-07
2.65607e-07
2.62198e-07
2.59424e-07
2.57208e-07
2.5552e-07
2.5437e-07
2.53799e-07
2.5387e-07
2.54659e-07
2.56246e-07
2.58696e-07
2.62115e-07
2.66653e-07
2.72347e-07
2.79193e-07
2.87181e-07
2.96301e-07
3.06625e-07
3.18414e-07
3.32243e-07
3.48886e-07
3.66773e-07
3.6394e-07
2.59532e-07
9.55556e-08
2.67282e-08
7.48794e-09
2.66235e-09
6.5385e-10
1.60911e-10
6.0534e-11
5.22159e-11
1.53253e-10
6.06709e-10
2.136e-09
6.10675e-09
1.44012e-08
2.89411e-08
5.10699e-08
8.10129e-08
1.1726e-07
1.56136e-07
1.93367e-07
2.24437e-07
2.45727e-07
2.55941e-07
2.5596e-07
2.48278e-07
2.36199e-07
2.23061e-07
2.11694e-07
2.04184e-07
2.01879e-07
2.05486e-07
2.15127e-07
2.3058e-07
2.50377e-07
2.73013e-07
2.97124e-07
3.21381e-07
3.44645e-07
3.66056e-07
3.85065e-07
4.01414e-07
4.15089e-07
4.26246e-07
4.35151e-07
4.42119e-07
4.47469e-07
4.51485e-07
4.5421e-07
2.89925e-07
2.81554e-07
2.75132e-07
2.70119e-07
2.66183e-07
2.63138e-07
2.609e-07
2.59459e-07
2.58852e-07
2.59159e-07
2.60456e-07
2.62854e-07
2.66451e-07
2.71289e-07
2.77332e-07
2.84592e-07
2.93044e-07
3.02468e-07
3.12568e-07
3.2304e-07
3.33669e-07
3.44318e-07
3.55121e-07
3.66563e-07
3.79466e-07
3.94004e-07
4.02449e-07
3.60283e-07
2.156e-07
8.92059e-08
3.45338e-08
1.57507e-08
7.24318e-09
3.86383e-09
2.83816e-09
2.95282e-09
4.48046e-09
8.99371e-09
1.92812e-08
3.89641e-08
7.16849e-08
1.19619e-07
1.81907e-07
2.53783e-07
3.27374e-07
3.93522e-07
4.4425e-07
4.74411e-07
4.82683e-07
4.71741e-07
4.46991e-07
4.14784e-07
3.81044e-07
3.50525e-07
3.26506e-07
3.10841e-07
3.0422e-07
3.06826e-07
3.1711e-07
3.32681e-07
3.51937e-07
3.73159e-07
3.94833e-07
4.15713e-07
4.34919e-07
4.51911e-07
4.66464e-07
4.78581e-07
4.88429e-07
4.96261e-07
5.02373e-07
5.07063e-07
5.10604e-07
5.13229e-07
5.15005e-07
2.89951e-07
2.81693e-07
2.75502e-07
2.70874e-07
2.67597e-07
2.65596e-07
2.64898e-07
2.65587e-07
2.67858e-07
2.7193e-07
2.77906e-07
2.85932e-07
2.96054e-07
3.0817e-07
3.22044e-07
3.3753e-07
3.53997e-07
3.70777e-07
3.87187e-07
4.0264e-07
4.16732e-07
4.29328e-07
4.40634e-07
4.51245e-07
4.62114e-07
4.74127e-07
4.85343e-07
4.78008e-07
4.00138e-07
2.54148e-07
1.36794e-07
7.71659e-08
4.80118e-08
3.51326e-08
3.19751e-08
3.69637e-08
5.54155e-08
9.44119e-08
1.6151e-07
2.60508e-07
3.89278e-07
5.3771e-07
6.88677e-07
8.22719e-07
9.22971e-07
9.79283e-07
9.89752e-07
9.5957e-07
8.9853e-07
8.1882e-07
7.32557e-07
6.5002e-07
5.78553e-07
5.22396e-07
4.83051e-07
4.60095e-07
4.51752e-07
4.53801e-07
4.63354e-07
4.77717e-07
4.94585e-07
5.12277e-07
5.2944e-07
5.45192e-07
5.59057e-07
5.7086e-07
5.80632e-07
5.88532e-07
5.9479e-07
5.9966e-07
6.03391e-07
6.06211e-07
6.0832e-07
6.09883e-07
6.1098e-07
2.9004e-07
2.82059e-07
2.76484e-07
2.73066e-07
2.71861e-07
2.72954e-07
2.76581e-07
2.8283e-07
2.91986e-07
3.04385e-07
3.20275e-07
3.39748e-07
3.62615e-07
3.88381e-07
4.16393e-07
4.4561e-07
4.74646e-07
5.02491e-07
5.28367e-07
5.51839e-07
5.72847e-07
5.91737e-07
6.09271e-07
6.26626e-07
6.4536e-07
6.67214e-07
6.93051e-07
7.17914e-07
7.17035e-07
6.49211e-07
5.22477e-07
4.05209e-07
3.32776e-07
3.07892e-07
3.30558e-07
4.27702e-07
6.07439e-07
8.66039e-07
1.18164e-06
1.51474e-06
1.82056e-06
2.05923e-06
2.20392e-06
2.24675e-06
2.19364e-06
2.06144e-06
1.87338e-06
1.65459e-06
1.42864e-06
1.21599e-06
1.03169e-06
8.84048e-07
7.74743e-07
7.00601e-07
6.56169e-07
6.33851e-07
6.2633e-07
6.28916e-07
6.37663e-07
6.49646e-07
6.62776e-07
6.75654e-07
6.87503e-07
6.97925e-07
7.06795e-07
7.14144e-07
7.20095e-07
7.24824e-07
7.28524e-07
7.3138e-07
7.3356e-07
7.35212e-07
7.36464e-07
7.3743e-07
7.38207e-07
2.90328e-07
2.83173e-07
2.79853e-07
2.80706e-07
2.86014e-07
2.95021e-07
3.07964e-07
3.25154e-07
3.47014e-07
3.73978e-07
4.06218e-07
4.43424e-07
4.84711e-07
5.28772e-07
5.74082e-07
6.18537e-07
6.61066e-07
7.01156e-07
7.38891e-07
7.74975e-07
8.107e-07
8.47948e-07
8.89253e-07
9.37935e-07
9.98291e-07
1.07577e-06
1.17682e-06
1.30741e-06
1.46698e-06
1.63873e-06
1.79286e-06
1.9291e-06
2.09188e-06
2.33333e-06
2.72234e-06
3.29195e-06
3.90178e-06
4.4744e-06
4.92907e-06
5.20765e-06
5.27968e-06
5.14046e-06
4.81159e-06
4.3429e-06
3.78845e-06
3.20293e-06
2.63646e-06
2.1296e-06
1.70775e-06
1.3803e-06
1.14288e-06
9.82128e-07
8.80348e-07
8.21193e-07
7.90752e-07
7.79026e-07
7.78476e-07
7.84655e-07
7.94281e-07
8.05222e-07
8.1609e-07
8.26099e-07
8.34878e-07
8.42357e-07
8.48635e-07
8.53832e-07
8.58044e-07
8.61412e-07
8.64077e-07
8.66163e-07
8.67785e-07
8.69047e-07
8.70048e-07
8.7089e-07
8.71701e-07
2.91406e-07
2.88041e-07
2.94008e-07
3.06404e-07
3.2273e-07
3.42829e-07
3.66912e-07
3.95679e-07
4.30083e-07
4.70762e-07
5.17596e-07
5.69586e-07
6.25033e-07
6.81945e-07
7.38481e-07
7.93502e-07
8.4684e-07
8.99292e-07
9.5264e-07
1.00965e-06
1.07415e-06
1.15121e-06
1.24754e-06
1.37212e-06
1.53687e-06
1.75749e-06
2.05393e-06
2.44966e-06
2.96775e-06
3.62113e-06
4.38555e-06
5.26689e-06
6.28133e-06
7.35362e-06
8.39745e-06
9.27843e-06
9.95451e-06
1.03271e-05
1.03316e-05
9.93289e-06
9.14387e-06
8.0136e-06
6.64489e-06
5.2731e-06
4.06295e-06
3.08943e-06
2.35435e-06
1.82177e-06
1.44786e-06
1.19369e-06
1.02834e-06
9.27147e-07
8.70292e-07
8.4262e-07
8.33619e-07
8.36284e-07
8.45849e-07
8.59212e-07
8.74172e-07
8.89198e-07
9.03244e-07
9.15591e-07
9.25775e-07
9.3393e-07
9.4071e-07
9.46293e-07
9.50881e-07
9.5459e-07
9.57546e-07
9.59882e-07
9.61719e-07
9.6317e-07
9.64353e-07
9.65402e-07
9.66491e-07
)
;

boundaryField
{
    ibCylinder
    {
        type            immersedBoundaryNutWallFunction;
        patchType       immersedBoundary;
        blending        stepwise;
        value           nonuniform List<scalar> 0();
    }
    in
    {
        type            zeroGradient;
    }
    out
    {
        type            zeroGradient;
    }
    top
    {
        type            zeroGradient;
    }
    bottom
    {
        type            zeroGradient;
    }
    frontAndBack
    {
        type            empty;
    }
}


// ************************************************************************* //
