/*--------------------------------*- C++ -*----------------------------------*\
| =========                 |                                                 |
| \\      /  F ield         | OpenFOAM: The Open Source CFD Toolbox           |
|  \\    /   O peration     | Version:  2206                                  |
|   \\  /    A nd           | Website:  www.openfoam.com                      |
|    \\/     M anipulation  |                                                 |
\*---------------------------------------------------------------------------*/
FoamFile
{
    version     2.0;
    format      ascii;
    arch        "LSB;label=32;scalar=64";
    class       volScalarField;
    location    "0.9";
    object      omega;
}
// * * * * * * * * * * * * * * * * * * * * * * * * * * * * * * * * * * * * * //

dimensions      [0 0 -1 0 0 0 0];

internalField   nonuniform List<scalar> 
1875
(
293.474
184.581
128.06
95.035
74.1525
60.3235
50.7887
43.9696
38.9408
35.1402
32.2162
29.9431
28.1705
26.7965
25.7534
24.9889
24.468
24.1678
24.0772
24.1978
24.5443
25.146
26.0483
27.3143
29.025
31.278
34.1837
37.8588
42.4173
47.9451
54.2387
61.5515
70.0947
78.9057
86.8976
92.7909
96.5289
97.6573
96.1373
92.2055
86.3043
78.733
69.8462
61.0218
52.9795
45.993
40.0905
35.2002
31.23
28.075
25.6376
23.8137
22.4941
21.5696
20.95
20.5609
20.3401
20.2405
20.2236
20.2587
20.3217
20.3939
20.4601
20.5162
20.5687
20.6164
20.6591
20.6961
20.7271
20.7527
20.7733
20.7897
20.8021
20.8109
20.816
293.24
189.686
135.133
102.38
81.1034
66.3802
55.8098
48.0081
42.1157
37.5798
34.0347
31.2318
28.9977
27.21
25.7819
24.6479
23.7564
23.0684
22.554
22.1918
21.9681
21.8763
21.9171
22.0987
22.4369
22.9557
23.6922
24.7159
26.1743
28.3294
31.4647
35.6696
40.6373
45.5413
50.0907
54.5901
59.0185
63.0114
66.2043
68.3291
69.2265
68.7888
66.9775
63.9236
59.8377
55.0042
49.764
44.4873
39.5052
35.0725
31.3357
28.3251
25.9652
24.1675
22.8475
21.8891
21.1929
20.6973
20.3496
20.1096
19.9467
19.8386
19.7688
19.726
19.7023
19.6919
19.6896
19.692
19.697
19.703
19.7092
19.7148
19.7195
19.7223
19.7199
293.164
189.998
136.867
105.149
84.3175
69.7385
59.0892
51.0384
44.7995
39.8752
35.9319
32.7373
30.1247
27.9725
26.1909
24.7132
23.486
22.4658
21.6177
20.9144
20.3355
19.8676
19.5045
19.2482
19.1104
19.118
19.3384
19.9762
21.6036
25.3069
32.1707
42.0891
53.7713
62.4841
67.0303
67.7389
67.8455
67.5208
66.9786
66.338
65.6234
64.7368
63.5209
61.8703
59.6961
56.9507
53.6345
49.8184
45.6551
41.3797
37.2512
33.4877
30.2206
27.4951
25.2857
23.5451
22.202
21.1703
20.3834
19.7864
19.3373
19.0027
18.7563
18.5773
18.4491
18.3587
18.296
18.2531
18.2243
18.2054
18.1932
18.1855
18.1807
18.177
18.171
293.088
189.328
136.385
105.231
84.955
70.7902
60.3781
52.4302
46.1989
41.2168
37.1615
33.8167
31.0291
28.6864
26.7044
25.0182
23.5793
22.3476
21.2915
20.3864
19.6144
18.9647
18.4344
18.03
17.7724
17.7177
18.0558
19.4999
24.194
35.9785
57.9438
87.4926
124.892
148.562
154.437
146.057
134.924
122.921
111.251
100.65
91.3951
83.4932
76.8145
71.1419
66.2173
61.7929
57.6615
53.6561
49.6638
45.6496
41.6608
37.8038
34.2029
30.9616
28.1387
25.7441
23.7578
22.1556
20.8806
19.8714
19.0791
18.4669
17.9986
17.6445
17.3798
17.1843
17.0416
16.9387
16.8653
16.8135
16.7773
16.7523
16.735
16.7228
16.712
293.045
188.859
135.606
104.478
84.4286
70.5473
60.3987
52.6672
46.591
41.7007
37.6869
34.344
31.5284
29.1358
27.0862
25.3174
23.7835
22.4498
21.2892
20.2821
19.4167
18.6854
18.0899
17.6443
17.3874
17.4462
18.3622
22.4083
36.5236
71.702
134.763
207.732
328.542
414.163
417.044
358.633
302.858
251.545
207.385
172.112
144.463
122.761
105.788
92.4402
81.8054
73.1894
66.0584
59.9964
54.6885
49.906
45.5013
41.399
37.5863
34.0867
30.9323
28.1451
25.7294
23.6685
21.9479
20.541
19.4037
18.4954
17.7801
17.224
16.7972
16.4736
16.2313
16.052
15.9208
15.826
15.7581
15.7101
15.6762
15.6524
15.6345
293.024
188.607
135.064
103.766
83.6898
69.8842
59.8667
52.2848
46.3512
41.5821
37.667
34.3985
31.6328
29.2675
27.2266
25.4518
23.8997
22.5386
21.3451
20.3039
19.4055
18.648
18.0388
17.6026
17.4116
17.7584
20.0947
30.91
69.8222
163.333
334.461
496.401
961.667
1557.05
1768.22
1379.43
893.602
571.503
380.559
276.824
212.063
168.393
138.025
115.867
99.0995
86.0685
75.7461
67.4097
60.4656
54.5332
49.3453
44.724
40.5583
36.7899
33.3928
30.3553
27.6697
25.3257
23.3077
21.5933
20.1651
18.9948
18.0489
17.2952
16.7029
16.2436
15.8923
15.6269
15.429
15.2831
15.1769
15.1005
15.0459
15.0074
14.9799
293.013
188.477
134.751
103.292
83.1138
69.2694
59.2655
51.7334
45.8701
41.1794
37.3419
34.1445
31.4399
29.1237
27.1193
25.3706
23.8367
22.4877
21.3026
20.2665
19.3728
18.623
18.0312
17.6377
17.5774
18.5026
23.9971
50.7042
148.425
381.533
899.538
1387.82
4275.32
12514.2
24956
17991.4
6994.26
2627.25
880.995
398.456
266.85
194.523
153.341
126.705
107.592
93.008
81.4644
72.1394
64.4112
57.8636
52.2059
47.2335
42.8064
38.8339
35.265
32.0699
29.2283
26.7222
24.5346
22.6467
21.0368
19.6833
18.5643
17.6526
16.9203
16.3403
15.8874
15.5385
15.2734
15.0746
14.9275
14.82
14.7423
14.6868
14.648
293.007
188.409
134.575
103.005
82.7349
68.8274
58.7898
51.2495
45.3986
40.7351
36.934
33.7771
31.1136
28.8363
26.8679
25.1517
23.6464
22.322
21.1574
20.1397
19.264
18.5352
17.9748
17.6454
17.7938
19.795
31.7684
92.5447
322.598
934.181
3181.97
21159.1
500
500
500
500
500
126648
7025.68
872.921
325.193
199.354
149.152
121.893
104.23
91.1768
80.7938
72.1772
64.8993
58.6055
53.0786
48.1677
43.767
39.8029
36.225
33.0139
30.1445
27.5995
25.361
23.4103
21.7276
20.2918
19.0804
18.0726
17.2464
16.5786
16.0465
15.6287
15.3053
15.0586
14.873
14.7353
14.6344
14.5616
14.5112
293.004
188.371
134.472
102.832
82.497
68.5368
58.4602
50.8951
45.032
40.3672
36.5734
33.4301
30.7841
28.5268
26.5792
24.8844
23.4003
22.0961
20.9507
19.9516
19.095
18.3892
17.8638
17.6132
18.0727
21.958
46.2496
175.438
724.164
2817.05
52211.5
500
500
500
500
500
500
500
500
8152.57
793.69
270.713
154.167
110.567
93.4866
82.78
74.6531
67.8638
61.9172
56.5754
51.7181
47.2782
43.213
39.495
36.1081
33.0447
30.2939
27.8427
25.6744
23.7705
22.1115
20.678
19.451
18.412
17.5429
16.8262
16.2439
15.7779
15.4107
15.1257
14.908
14.7441
14.6225
14.5337
14.4723
293.003
188.348
134.411
102.725
82.3485
68.3515
58.2449
50.6566
44.777
40.1021
36.3037
33.1602
30.5177
28.2667
26.3277
24.643
23.1699
21.8773
20.7439
19.7573
18.9147
18.227
17.7332
17.5705
18.4718
25.4536
71.7848
335.412
1862.5
13846.6
500
500
500
500
500
500
500
500
500
500
3437.3
498.753
191.229
111.843
84.5162
72.3889
65.6288
60.726
56.3676
52.2925
48.4167
44.7317
41.2516
37.997
34.9872
32.2358
29.7463
27.5126
25.5214
23.7561
22.1994
20.8349
19.6478
18.6249
17.7536
17.0211
16.4146
15.9205
15.5244
15.2123
14.9703
14.7858
14.6472
14.5451
14.4741
293.002
188.335
134.374
102.661
82.2582
68.2378
58.1112
50.5065
44.614
39.9293
36.1241
32.9765
30.3322
28.0814
26.1443
24.4628
22.9938
21.7061
20.5782
19.5977
18.7627
18.0865
17.617
17.5459
19.035
30.7711
114.83
632.046
2952.57
500
500
500
500
500
500
500
500
500
500
500
13245
931.57
248.709
119.552
79.3973
64.1838
57.3223
53.2085
49.8282
46.88
44.0002
41.1577
38.3851
35.729
33.226
30.9034
28.774
26.8379
25.0872
23.5103
22.0957
20.833
19.7139
18.7315
17.8794
17.1508
16.5374
16.0298
15.6172
15.2877
15.0292
14.8299
14.6788
14.5665
14.4882
293.001
188.327
134.353
102.627
82.2091
68.1758
58.038
50.4238
44.5235
39.8327
36.0227
32.8716
30.225
27.9728
26.0354
24.3542
22.8861
21.5996
20.4733
19.4948
18.6625
17.9915
17.5379
17.5507
19.7313
38.2363
192.523
1209.41
5838.19
500
500
500
500
500
500
500
500
500
500
500
38132.3
1900.93
340.337
129.911
77.4354
58.9014
51.0915
47.1413
44.4724
42.0655
39.9054
37.7755
35.6338
33.5399
31.5228
29.612
27.8249
26.1667
24.6362
23.2292
21.9415
20.7703
19.7138
18.7714
17.9419
17.2232
16.6108
16.0986
15.6779
15.339
15.0709
14.8626
14.7036
14.5847
14.5016
293.001
188.325
134.347
102.615
82.1933
68.1558
58.0144
50.3972
44.4944
39.8015
35.9898
32.8374
30.19
27.9373
25.9995
24.3181
22.8498
21.5633
20.437
19.4586
18.6265
17.9565
17.508
17.5616
20.1684
43.543
254.962
1570.27
7729
500
500
500
500
500
500
500
500
500
500
500
618607
16390
979.311
168.281
79.082
57.1113
48.5837
44.5267
42.027
39.9231
38.0125
36.2138
34.3564
32.5124
30.7304
29.0115
27.3814
25.8493
24.4175
23.0863
21.8555
20.7257
19.6986
18.7759
17.9588
17.2468
16.6372
16.1249
15.7024
15.3606
15.0892
14.8776
14.7155
14.5938
14.5087
293.001
188.327
134.353
102.627
82.2091
68.1758
58.0379
50.4237
44.5235
39.8326
36.0226
32.8715
30.2249
27.9727
26.0353
24.3541
22.8859
21.5994
20.4729
19.4942
18.6616
17.9897
17.5319
17.5126
19.4286
35.9835
180.456
1212.2
5838.19
500
500
500
500
500
500
500
500
500
500
500
38132.3
1901.13
351.526
131.54
77.2731
58.7507
51.055
47.1607
44.504
42.0953
39.9223
37.7696
35.6036
33.488
31.4548
29.5346
27.7446
26.0892
24.5658
23.169
21.8931
20.7342
19.6895
18.7577
17.9371
17.2251
16.6177
16.1085
15.6894
15.3508
15.0821
14.8727
14.7124
14.592
14.5077
293.002
188.335
134.374
102.661
82.2582
68.2378
58.1112
50.5064
44.6139
39.9292
36.124
32.9763
30.332
28.0811
26.1441
24.4625
22.9935
21.7057
20.5776
19.5967
18.761
18.0832
17.6076
17.4927
18.63
27.8121
98.9247
635.586
2952.57
500
500
500
500
500
500
500
500
500
500
500
13245
960.278
248.102
118.161
78.7625
63.9355
57.2687
53.2438
49.8856
46.9269
44.0122
41.1246
38.3081
35.6155
33.0867
30.7506
28.6194
26.6914
24.9562
23.4001
22.0086
20.7696
19.6729
18.7102
17.8744
17.1581
16.5533
16.0508
15.6405
15.311
15.0511
14.8494
14.6954
14.5802
14.4995
293.003
188.348
134.411
102.725
82.3485
68.3515
58.2448
50.6565
44.7769
40.102
36.3034
33.1599
30.5174
28.2664
26.3273
24.6426
23.1695
21.8768
20.7432
19.7561
18.9126
18.2231
17.7231
17.523
18.1424
23.2155
60.7001
327.447
1822.19
13846.6
500
500
500
500
500
500
500
500
500
500
3437.3
500.585
187.608
110.029
83.7207
72.101
65.5848
60.7819
56.4381
52.328
48.396
44.6505
41.116
37.8191
34.7822
32.0198
29.5341
27.3166
25.3507
23.6165
22.0932
20.7617
19.6049
18.608
17.7574
17.04
16.4434
15.9545
15.56
15.2467
15.0016
14.8129
14.6699
14.5634
14.4889
293.004
188.371
134.472
102.832
82.497
68.5367
58.4601
50.8949
45.0318
40.367
36.5731
33.4298
30.7838
28.5264
26.5787
24.884
23.3999
22.0957
20.9503
19.9508
19.0933
18.3856
17.8549
17.5774
17.8472
20.4527
38.321
155.361
717.556
2817.05
52211.5
500
500
500
500
500
500
500
500
8152.57
829.332
271.856
150.977
108.991
92.7505
82.5324
74.6344
67.9116
61.9473
56.5494
51.6244
47.1201
43.0025
39.2487
35.8442
32.7811
30.0464
27.6236
25.4923
23.6296
22.0124
20.6182
19.4256
18.4148
17.5668
16.8643
16.29
15.8268
15.4584
15.1696
14.9464
14.7763
14.6484
14.5538
14.4878
293.007
188.409
134.575
103.005
82.7349
68.8273
58.7896
51.2493
45.3983
40.7348
36.9336
33.7767
31.1131
28.8359
26.8676
25.1515
23.6465
22.3223
21.1579
20.1401
19.2637
18.5332
17.9685
17.622
17.6622
18.9581
27.373
79.7412
321.157
951.556
3181.97
21159.1
500
500
500
500
500
126648
7025.68
922.799
327.158
193.403
145.89
120.357
103.564
90.9155
80.6924
72.1068
64.7973
58.4473
52.8612
47.9003
43.4653
39.4857
35.9114
32.7213
29.887
27.3867
25.1981
23.298
21.6627
20.2685
19.0911
18.1085
17.2991
16.6405
16.1112
15.6914
15.3625
15.1084
14.9144
14.7683
14.6595
14.5797
14.5239
293.013
188.477
134.751
103.292
83.1137
69.2693
59.2653
51.7331
45.8697
41.1789
37.3414
34.144
31.4395
29.1235
27.1194
25.3712
23.8379
22.4895
21.305
20.2693
19.3753
18.6242
18.0291
17.6248
17.5089
18.0936
21.8858
44.0659
143.802
395.546
925.901
1387.82
4275.32
12514.2
24956
17991.4
6994.26
2627.25
881.466
399.877
254.447
188.39
150.497
125.243
106.792
92.5285
81.1244
71.8395
64.103
57.5281
51.8422
46.8513
42.4212
38.4638
34.9273
31.7792
28.9943
26.5495
24.4227
22.5907
21.0289
19.7134
18.6215
17.7268
17.0026
16.4235
15.9661
15.609
15.3337
15.1239
14.9659
14.8483
14.7617
14.6987
14.6542
293.024
188.607
135.064
103.766
83.6897
69.8841
59.8665
52.2844
46.3507
41.5816
37.6665
34.3981
31.6326
29.2678
27.2276
25.4538
23.9028
22.543
21.3507
20.3104
19.4124
18.6539
18.0421
17.5987
17.3803
17.5795
19.2023
28.0096
66.8641
168.341
353.899
525.627
964.017
1555.97
1767.29
1376.81
895.775
572.299
381.212
272.528
207.514
165.312
135.996
114.523
98.1765
85.3873
75.1914
66.9123
59.9889
54.0627
48.8816
44.2767
40.142
36.4207
33.0844
30.1168
27.5043
25.2307
23.2757
21.6136
20.2242
19.0799
18.1486
17.3996
16.8043
16.3366
15.9735
15.6947
15.483
15.324
15.2059
15.1191
15.0559
15.0102
14.9775
293.045
188.86
135.606
104.478
84.4285
70.5471
60.3984
52.6668
46.5904
41.7001
37.6865
34.3439
31.5288
29.137
27.0887
25.3215
23.7894
22.4577
21.299
20.2933
19.4285
18.6964
18.0985
17.6475
17.3761
17.375
18.0247
21.3056
35.1455
73.5851
145.288
225.375
332.912
428.583
437.417
369.997
306.673
251.39
206.21
170.718
143.149
121.693
104.946
91.7586
81.2226
72.659
65.5517
59.4998
54.1994
49.4301
45.0506
40.989
37.2333
33.8038
30.7274
28.0189
25.6766
23.6792
22.0077
20.6345
19.5175
18.6177
17.9014
17.3372
16.8976
16.5588
16.3005
16.1056
15.96
15.8525
15.7738
15.7168
15.6757
15.6463
15.6243
293.088
189.328
136.385
105.231
84.9548
70.7899
60.3777
52.4296
46.1983
41.2163
37.1614
33.8171
31.0304
28.6891
26.7088
25.0248
23.5882
22.3588
21.3047
20.401
19.6293
18.9785
18.4452
18.0354
17.7681
17.6877
17.9341
19.1226
23.6509
36.5063
62.0044
95.666
132.35
160.249
167.164
155.836
141.953
127.802
114.552
102.815
92.7542
84.2864
77.2055
71.2482
66.1256
61.5685
57.3542
53.3045
49.2991
45.2983
41.3458
37.544
34.0111
30.8432
28.0914
25.7601
23.8244
22.2574
21.004
20.0042
19.2114
18.5912
18.1099
17.7398
17.4582
17.246
17.0878
16.9711
16.8859
16.8242
16.78
16.7486
16.7264
16.7105
16.6973
293.164
189.999
136.867
105.149
84.3173
69.7382
59.0888
51.0379
44.7991
39.875
35.9322
32.7385
30.127
27.9766
26.197
24.7215
23.4965
22.4781
21.631
20.9279
20.3478
19.8771
19.5092
19.2459
19.0982
19.0899
19.2752
19.8318
21.3859
25.3529
33.2991
44.914
57.8032
68.1786
73.0789
73.0146
72.1575
70.9062
69.5284
68.1701
66.866
65.5146
63.9495
62.0499
59.7072
56.8544
53.4769
49.6352
45.4747
41.2252
37.1395
33.4282
30.2149
27.5383
25.3684
23.655
22.3273
21.3013
20.5119
19.9063
19.4442
19.0942
18.8316
18.6366
18.4938
18.3904
18.3164
18.2641
18.2277
18.2027
18.1857
18.1744
18.1668
18.161
18.1542
293.24
189.686
135.133
102.38
81.1033
66.38
55.8096
48.0079
42.1157
37.5802
34.0359
31.234
29.0013
27.2153
25.7887
24.6561
23.7656
23.0777
22.5625
22.1984
21.9712
21.8741
21.9076
22.0793
22.4043
22.9057
23.6171
24.6016
26.0159
28.1942
31.5506
36.2065
41.6788
47.0551
51.7133
56.0573
60.2518
64.0029
66.9664
68.8891
69.6168
69.0434
67.1373
64.0185
59.8829
55.0121
49.7495
44.4675
39.4963
35.0866
31.3781
28.395
26.0571
24.2737
22.9601
22.0017
21.3001
20.7952
20.4357
20.1824
20.0058
19.8844
19.8022
19.7483
19.7154
19.6973
19.6887
19.6862
19.6873
19.6903
19.6941
19.698
19.7012
19.7027
19.6999
293.474
184.581
128.06
95.0349
74.1525
60.3236
50.7888
43.9699
38.9417
35.142
32.2192
29.9475
28.1764
26.8037
25.7617
24.9975
24.4762
24.1746
24.0816
24.1987
24.5404
25.136
26.0309
27.2879
28.9882
31.2293
34.1212
37.7802
42.3226
47.8492
54.185
61.5999
70.2805
79.2177
87.2705
93.1756
96.9001
97.9958
96.4298
92.4442
86.4881
78.8664
69.9381
61.0806
53.0143
46.0148
40.1114
35.2312
31.2783
28.1426
25.7217
23.9088
22.5939
21.668
21.0425
20.6444
20.4127
20.3013
20.2725
20.2962
20.3489
20.4119
20.4703
20.52
20.5674
20.6109
20.6505
20.685
20.7141
20.7383
20.7579
20.7733
20.7847
20.7914
20.7911
)
;

boundaryField
{
    ibCylinder
    {
        type            immersedBoundaryOmegaWallFunction;
        patchType       immersedBoundary;
        blending        stepwise;
        setDeadValue    true;
        deadValue       500;
        value           nonuniform List<scalar> 0();
    }
    in
    {
        type            fixedValue;
        value           uniform 500;
    }
    out
    {
        type            inletOutlet;
        inletValue      uniform 500;
        value           nonuniform List<scalar> 
25
(
20.816
19.7199
18.171
16.712
15.6345
14.9799
14.648
14.5112
14.4723
14.4741
14.4882
14.5016
14.5087
14.5077
14.4995
14.4889
14.4878
14.5239
14.6542
14.9775
15.6243
16.6973
18.1542
19.6999
20.7911
)
;
    }
    top
    {
        type            zeroGradient;
    }
    bottom
    {
        type            zeroGradient;
    }
    frontAndBack
    {
        type            empty;
    }
}


// ************************************************************************* //
