/*--------------------------------*- C++ -*----------------------------------*\
| =========                 |                                                 |
| \\      /  F ield         | OpenFOAM: The Open Source CFD Toolbox           |
|  \\    /   O peration     | Version:  2206                                  |
|   \\  /    A nd           | Website:  www.openfoam.com                      |
|    \\/     M anipulation  |                                                 |
\*---------------------------------------------------------------------------*/
FoamFile
{
    version     2.0;
    format      ascii;
    arch        "LSB;label=32;scalar=64";
    class       volScalarField;
    location    "0.9";
    object      p;
}
// * * * * * * * * * * * * * * * * * * * * * * * * * * * * * * * * * * * * * //

dimensions      [0 2 -2 0 0 0 0];

internalField   nonuniform List<scalar> 
1875
(
6.30333
5.91386
5.66253
5.56404
5.50332
5.45496
5.4189
5.39224
5.37057
5.35096
5.33182
5.31215
5.29113
5.26818
5.24228
5.21243
5.17726
5.13526
5.08447
5.02227
4.94529
4.84918
4.72841
4.57603
4.38354
4.14087
3.83686
3.46032
3.00233
2.45981
1.8397
1.16559
0.479179
-0.173411
-0.751626
-1.21202
-1.5285
-1.71471
-1.79384
-1.79253
-1.7344
-1.63395
-1.50244
-1.3564
-1.20921
-1.06727
-0.933629
-0.809664
-0.695879
-0.59195
-0.497232
-0.411465
-0.334523
-0.265795
-0.2051
-0.15213
-0.106871
-0.0689771
-0.0379425
-0.0131586
0.00604731
0.0204213
0.0306649
0.0373342
0.0409934
0.0422642
0.0416288
0.0394926
0.0362038
0.0320112
0.0271205
0.0216971
0.0158734
0.00975448
0.00340161
5.92867
5.77309
5.64408
5.56605
5.51189
5.46743
5.43142
5.40345
5.38007
5.35883
5.33839
5.31773
5.296
5.27245
5.24634
5.21637
5.18126
5.13955
5.08927
5.02782
4.95183
4.85693
4.73751
4.5864
4.39468
4.15159
3.84481
3.4615
2.99057
2.42671
1.77621
1.065
0.335605
-0.356216
-0.951758
-1.40617
-1.70068
-1.84417
-1.87578
-1.83105
-1.73586
-1.60609
-1.45556
-1.3009
-1.1542
-1.01813
-0.891946
-0.775296
-0.668183
-0.570039
-0.480009
-0.398037
-0.324237
-0.257896
-0.198809
-0.14712
-0.102841
-0.0657108
-0.0352721
-0.0110026
0.00774593
0.0216611
0.031409
0.0377149
0.0412139
0.0423939
0.041701
0.0395343
0.0362194
0.0320117
0.0271121
0.0216855
0.0158635
0.00974314
0.00341754
5.75257
5.70211
5.63119
5.572
5.52361
5.48145
5.44639
5.4172
5.39213
5.36975
5.34863
5.32755
5.3058
5.28266
5.25736
5.22862
5.19518
5.1557
5.1083
5.05041
4.97874
4.88879
4.77468
4.62867
4.44073
4.19832
3.88626
3.48775
2.98668
2.37255
1.64909
0.84436
0.0162186
-0.763082
-1.40877
-1.86128
-2.11256
-2.18131
-2.12282
-1.99821
-1.84232
-1.66638
-1.48219
-1.30186
-1.13292
-0.979568
-0.844858
-0.727527
-0.623921
-0.531621
-0.448073
-0.372056
-0.303094
-0.240764
-0.184749
-0.135796
-0.0936232
-0.0582123
-0.029312
-0.00635304
0.0113809
0.02451
0.0336247
0.0394218
0.0424856
0.043325
0.0423777
0.0400207
0.0365622
0.0322464
0.0272695
0.0217875
0.0159283
0.00977256
0.00344575
5.67422
5.65321
5.608
5.56332
5.5246
5.49003
5.45901
5.43042
5.40598
5.38435
5.36324
5.34229
5.32145
5.3
5.27703
5.25139
5.2219
5.18743
5.14626
5.09589
5.03297
4.95304
4.84982
4.71459
4.53559
4.29712
3.97924
3.55822
3.00884
2.31073
1.45989
0.489666
-0.518272
-1.44357
-2.17227
-2.60416
-2.76128
-2.71653
-2.52643
-2.28567
-2.04501
-1.81055
-1.5783
-1.35425
-1.14887
-0.967056
-0.811574
-0.678213
-0.564984
-0.470236
-0.389639
-0.319722
-0.257881
-0.202682
-0.153493
-0.110345
-0.0731512
-0.0418628
-0.0164222
0.00370933
0.0191737
0.0304506
0.0381011
0.0427644
0.0449488
0.0451191
0.0436649
0.0409267
0.0371875
0.0326675
0.0275442
0.0219579
0.0160271
0.00981384
0.00345883
5.62288
5.612
5.58436
5.55197
5.52157
5.49327
5.46694
5.44223
5.42005
5.39998
5.38018
5.36088
5.34241
5.32403
5.30469
5.28345
5.25966
5.23242
5.20021
5.16118
5.11131
5.04604
4.9594
4.84143
4.67813
4.44986
4.12988
3.68338
3.06899
2.243
1.17042
-0.0922972
-1.4325
-2.57857
-3.33265
-3.68595
-3.68452
-3.42722
-3.04066
-2.65672
-2.32143
-2.02466
-1.74436
-1.46817
-1.21478
-0.990289
-0.798616
-0.634054
-0.497214
-0.389466
-0.306498
-0.240674
-0.186425
-0.140801
-0.101786
-0.0681428
-0.0393608
-0.0152744
0.00412703
0.0194804
0.0311334
0.0393198
0.0445633
0.0474587
0.0483335
0.0475167
0.0453299
0.042057
0.0379303
0.033135
0.0278206
0.0221045
0.0160872
0.00981949
0.00343168
5.58785
5.58165
5.56418
5.5412
5.51764
5.49465
5.4726
5.45158
5.43169
5.41345
5.39657
5.38053
5.36513
5.35028
5.33561
5.32043
5.30429
5.28648
5.26559
5.24029
5.2075
5.16256
5.09933
5.00739
4.87082
4.66573
4.35662
3.89192
3.20087
2.17136
0.791798
-0.80442
-2.44883
-3.94928
-4.76262
-4.88616
-4.62356
-4.10511
-3.48883
-2.96724
-2.57138
-2.22886
-1.91186
-1.60984
-1.31264
-1.03631
-0.801964
-0.60329
-0.434986
-0.305607
-0.211155
-0.143226
-0.0941333
-0.0584049
-0.0315711
-0.0102537
0.00715223
0.0213184
0.0325881
0.04113
0.0472688
0.0512513
0.0532468
0.0536272
0.0526737
0.0505456
0.0474169
0.043461
0.0388395
0.0336944
0.0281381
0.0222606
0.0161374
0.00981554
0.00337795
5.56366
5.55978
5.54805
5.53139
5.51315
5.49465
5.47635
5.45865
5.44187
5.42635
5.41211
5.39894
5.38685
5.37597
5.36648
5.35819
5.35061
5.34334
5.33571
5.32675
5.31448
5.29506
5.26248
5.20662
5.11079
4.94783
4.67341
4.21483
3.45453
2.23335
0.679675
-0.885552
-2.16157
-4.36796
-5.70363
-5.8041
-5.28402
-4.42776
-3.62961
-3.02478
-2.62007
-2.28939
-1.98935
-1.69476
-1.38743
-1.08438
-0.808655
-0.574996
-0.382064
-0.229364
-0.116905
-0.0413416
0.00547255
0.0329211
0.0485378
0.0573767
0.0623096
0.0650513
0.0664599
0.0669608
0.0666915
0.0656287
0.0637637
0.0611987
0.0580056
0.0542193
0.0499098
0.045132
0.0399368
0.0343862
0.0285439
0.0224715
0.0162156
0.00981866
0.00330967
5.54657
5.54388
5.53553
5.52313
5.50887
5.49391
5.4788
5.46404
5.45003
5.43713
5.42553
5.41537
5.40689
5.40046
5.39631
5.39454
5.39527
5.39873
5.40503
5.41383
5.42398
5.43305
5.4364
5.42545
5.38475
5.2871
5.08361
4.68701
3.95573
2.69562
1.2476
-1.03476
0
0
0
0
0
-3.85371
-3.46217
-2.80878
-2.44668
-2.18214
-1.9448
-1.68729
-1.40027
-1.09605
-0.797705
-0.532804
-0.313499
-0.143538
-0.021764
0.0570467
0.101945
0.123515
0.129596
0.126542
0.119361
0.110721
0.102255
0.0944926
0.0874855
0.0810976
0.0751499
0.0694674
0.0639129
0.0583721
0.0527738
0.0470654
0.0412112
0.0352009
0.02904
0.0227507
0.0163434
0.00985701
0.00325811
5.53441
5.5324
5.52615
5.51662
5.50528
5.49304
5.48048
5.46812
5.45645
5.44587
5.43674
5.42937
5.42417
5.42165
5.42236
5.42683
5.43566
5.44959
5.46934
5.49546
5.52811
5.56659
5.60848
5.64809
5.67348
5.66136
5.5673
5.32162
4.74151
3.72777
2.27459
0
0
0
0
0
0
0
0
-2.56016
-2.21024
-2.01321
-1.82268
-1.60209
-1.34087
-1.0488
-0.749969
-0.473515
-0.237668
-0.0550767
0.0737358
0.154493
0.196519
0.210091
0.2053
0.190691
0.172346
0.153599
0.136243
0.120859
0.107551
0.0961418
0.0862933
0.0776302
0.0698055
0.0625684
0.0557128
0.04909
0.0425762
0.0360939
0.0295999
0.0230827
0.0165172
0.00993859
0.00323933
5.52591
5.52434
5.51941
5.51178
5.50249
5.49227
5.48165
5.47117
5.46136
5.45271
5.44564
5.44063
5.4382
5.439
5.44392
5.45379
5.46961
5.49261
5.52418
5.56586
5.61916
5.68526
5.76437
5.85446
5.94861
6.02979
6.0633
5.96835
5.62748
5.4723
0
0
0
0
0
0
0
0
0
0
-1.99709
-1.83846
-1.68437
-1.49224
-1.25113
-0.970987
-0.678036
-0.401466
-0.163215
0.0237953
0.155777
0.23667
0.2753
0.282486
0.269416
0.245612
0.217955
0.190497
0.165344
0.143447
0.12488
0.109294
0.09614
0.0848795
0.075077
0.0663526
0.058385
0.0509602
0.0438652
0.036956
0.030154
0.0234226
0.0167061
0.0100306
0.00323626
5.52031
5.519
5.51489
5.50846
5.50053
5.49168
5.48243
5.47329
5.46485
5.45761
5.45209
5.44888
5.44859
5.45193
5.46003
5.47402
5.49522
5.52525
5.56609
5.62014
5.69008
5.77884
5.88914
6.02258
6.17759
6.34495
6.49656
6.51614
6.32416
0
0
0
0
0
0
0
0
0
0
0
-1.7478
-1.65832
-1.53994
-1.37604
-1.15438
-0.887579
-0.602987
-0.331264
-0.0956726
0.0897691
0.219739
0.297437
0.331936
0.334193
0.315205
0.285067
0.251039
0.217574
0.187072
0.160568
0.13815
0.119424
0.103772
0.0905719
0.0792757
0.0693857
0.0605147
0.0524496
0.0449051
0.0376659
0.0306186
0.0237127
0.0168725
0.010114
0.00324313
5.51713
5.51595
5.51229
5.50653
5.49937
5.49133
5.48288
5.47455
5.46693
5.46056
5.45599
5.45388
5.45498
5.45998
5.46999
5.48656
5.51115
5.54564
5.5924
5.65438
5.73509
5.83867
5.96962
6.13221
6.32888
6.55613
6.78827
6.94612
7.13185
0
0
0
0
0
0
0
0
0
0
0
-1.5426
-1.49614
-1.41994
-1.27983
-1.07399
-0.819092
-0.542508
-0.276434
-0.0455364
0.135654
0.262223
0.336454
0.367859
0.366757
0.343304
0.30896
0.271131
0.234106
0.200398
0.171113
0.146361
0.125726
0.108563
0.0941901
0.0819835
0.0713911
0.0619606
0.0534206
0.0455591
0.0381235
0.0309276
0.0239069
0.0169849
0.0101712
0.00325148
5.51609
5.51496
5.51143
5.50588
5.49897
5.4912
5.48302
5.47496
5.46761
5.46153
5.45728
5.45553
5.45712
5.46274
5.47338
5.49081
5.51655
5.55256
5.60136
5.66606
5.7505
5.85921
5.99733
6.17009
6.38132
6.62914
6.88824
7.11168
7.43418
0
0
0
0
0
0
0
0
0
0
0
-1.42611
-1.43962
-1.3718
-1.2401
-1.04129
-0.792056
-0.518375
-0.254748
-0.0258826
0.153061
0.277746
0.350402
0.38041
0.378589
0.353312
0.316903
0.277823
0.239638
0.204857
0.174642
0.149114
0.127843
0.11017
0.095398
0.0828831
0.0720992
0.0625515
0.0537769
0.0457709
0.03827
0.0310301
0.0239745
0.0170237
0.0101909
0.0032548
5.51711
5.51593
5.51227
5.50651
5.49935
5.49131
5.48286
5.47453
5.46691
5.46053
5.45597
5.45386
5.45495
5.45995
5.46997
5.48654
5.51113
5.54561
5.59238
5.65435
5.73507
5.83865
5.9696
6.1322
6.32887
6.55614
6.78831
6.94615
7.13188
0
0
0
0
0
0
0
0
0
0
0
-1.54287
-1.49638
-1.4202
-1.28005
-1.0742
-0.819269
-0.542646
-0.276533
-0.0456023
0.135613
0.262198
0.336435
0.367842
0.366741
0.343284
0.308936
0.271105
0.234079
0.200372
0.171087
0.146337
0.125703
0.108542
0.0941712
0.081966
0.0713748
0.0619458
0.0534074
0.0455477
0.0381143
0.0309204
0.0239016
0.0169813
0.0101692
0.00325083
5.52028
5.51896
5.51485
5.50842
5.50049
5.49164
5.48238
5.47325
5.46481
5.45757
5.45205
5.44883
5.44855
5.45188
5.45998
5.47397
5.49517
5.5252
5.56605
5.62009
5.69004
5.7788
5.8891
6.02256
6.17758
6.34497
6.49659
6.51608
6.32419
0
0
0
0
0
0
0
0
0
0
0
-1.74836
-1.65878
-1.54043
-1.37651
-1.15479
-0.887924
-0.603251
-0.331452
-0.0957986
0.0896878
0.219684
0.297393
0.331894
0.334148
0.315155
0.285012
0.250984
0.217519
0.187018
0.160516
0.138101
0.119378
0.10373
0.0905339
0.0792407
0.0693534
0.0604852
0.0524233
0.0448826
0.0376476
0.0306043
0.0237021
0.0168653
0.0101099
0.00324184
5.52586
5.52428
5.51935
5.51172
5.50243
5.49221
5.48159
5.4711
5.4613
5.45264
5.44557
5.44056
5.43813
5.43893
5.44385
5.45372
5.46954
5.49253
5.5241
5.56579
5.61909
5.6852
5.76431
5.85441
5.94857
6.02978
6.06332
5.96832
5.62722
5.47261
0
0
0
0
0
0
0
0
0
0
-1.99777
-1.83916
-1.68506
-1.49293
-1.25174
-0.971487
-0.678414
-0.40174
-0.163407
0.0236624
0.155679
0.236588
0.275221
0.282404
0.26933
0.245523
0.217867
0.190412
0.165262
0.143368
0.124806
0.109225
0.0960771
0.0848224
0.0750247
0.0663045
0.0583413
0.0509213
0.0438319
0.0369287
0.0301326
0.0234068
0.0166954
0.0100246
0.00323433
5.53433
5.53233
5.52608
5.51654
5.5052
5.49297
5.4804
5.46804
5.45637
5.44579
5.43665
5.42929
5.42408
5.42156
5.42227
5.42673
5.43557
5.44949
5.46924
5.49536
5.52802
5.56649
5.60839
5.648
5.67341
5.66132
5.56726
5.32175
4.74175
3.72827
2.27693
0
0
0
0
0
0
0
0
-2.55977
-2.21068
-2.01411
-1.82353
-1.603
-1.34167
-1.04945
-0.750475
-0.473898
-0.23794
-0.0552763
0.0735799
0.154358
0.196391
0.209962
0.205171
0.190565
0.172223
0.153482
0.136131
0.120753
0.107451
0.0960501
0.0862097
0.0775542
0.0697364
0.0625053
0.0556556
0.0490392
0.0425326
0.0360579
0.0295717
0.0230618
0.0165029
0.00993054
0.00323677
5.54648
5.54379
5.53544
5.52304
5.50878
5.49381
5.47871
5.46394
5.44993
5.43703
5.42543
5.41526
5.40679
5.40035
5.3962
5.39442
5.39515
5.3986
5.4049
5.4137
5.42385
5.43291
5.43626
5.42531
5.38463
5.28698
5.08354
4.68688
3.95598
2.69638
1.24947
-1.03373
0
0
0
0
0
-3.85962
-3.46177
-2.80864
-2.44739
-2.18306
-1.94585
-1.68842
-1.40126
-1.09683
-0.79831
-0.533273
-0.31385
-0.14381
-0.0219887
0.056848
0.101759
0.123334
0.129422
0.126377
0.119202
0.110571
0.102114
0.0943603
0.0873623
0.0809842
0.0750464
0.0693736
0.0638276
0.0582947
0.052704
0.0470035
0.0411579
0.0351568
0.0290052
0.0227248
0.0163258
0.00984701
0.00325492
5.56356
5.55968
5.54794
5.53128
5.51304
5.49454
5.47624
5.45853
5.44175
5.42623
5.41199
5.39881
5.38673
5.37584
5.36634
5.35804
5.35046
5.34318
5.33555
5.32659
5.31431
5.29488
5.26229
5.20643
5.1106
4.94764
4.67325
4.21471
3.45438
2.23476
0.68146
-0.886554
-2.16348
-4.36927
-5.70671
-5.80626
-5.28579
-4.4302
-3.63091
-3.02524
-2.62092
-2.29068
-1.99062
-1.696
-1.3885
-1.08519
-0.809276
-0.575502
-0.382484
-0.229709
-0.117202
-0.0416081
0.00522598
0.0326898
0.048319
0.0571694
0.0621147
0.0648694
0.0662908
0.0668039
0.0665464
0.0654951
0.0636417
0.0610879
0.0579053
0.0541287
0.0498286
0.04506
0.0398747
0.0343345
0.028503
0.022441
0.0161947
0.00980674
0.00330586
5.58773
5.58154
5.56406
5.54108
5.51751
5.49453
5.47247
5.45145
5.43156
5.41331
5.39643
5.38039
5.36498
5.35013
5.33545
5.32027
5.30411
5.2863
5.2654
5.2401
5.2073
5.16234
5.0991
5.00714
4.87056
4.66547
4.35638
3.89167
3.2008
2.17062
0.790914
-0.804729
-2.45024
-3.9515
-4.76539
-4.88874
-4.62602
-4.10681
-3.48992
-2.96793
-2.57249
-2.23024
-1.91317
-1.61097
-1.31362
-1.03712
-0.802626
-0.603846
-0.435474
-0.306024
-0.211518
-0.143555
-0.0944343
-0.058684
-0.0318309
-0.0104962
0.00692665
0.0211088
0.0323933
0.040951
0.0471039
0.0510997
0.0531081
0.0535011
0.0525597
0.0504431
0.0473254
0.0433802
0.0387697
0.0336362
0.0280917
0.0222257
0.0161134
0.00980178
0.00337354
5.62275
5.61187
5.58423
5.55184
5.52143
5.49313
5.4668
5.44209
5.4199
5.39983
5.38002
5.36072
5.34225
5.32386
5.30451
5.28326
5.25946
5.23221
5.2
5.16095
5.11107
5.04577
4.95911
4.84111
4.6778
4.44951
4.12952
3.68298
3.0686
2.24232
1.16936
-0.0932058
-1.43321
-2.58043
-3.33509
-3.68858
-3.68667
-3.42839
-3.04181
-2.65749
-2.32222
-2.02566
-1.74545
-1.46914
-1.21568
-0.991092
-0.799304
-0.634658
-0.497751
-0.389939
-0.306919
-0.241056
-0.186773
-0.14112
-0.10208
-0.0684143
-0.0396124
-0.0155069
0.00391336
0.0192828
0.0309514
0.0391525
0.0444102
0.0473194
0.0482078
0.0474039
0.0452296
0.0419687
0.037854
0.0330712
0.0277695
0.0220658
0.0160604
0.00980403
0.00342673
5.67409
5.65308
5.60786
5.56318
5.52445
5.48988
5.45886
5.43027
5.40582
5.38419
5.36307
5.34212
5.32127
5.29982
5.27684
5.25119
5.22169
5.1872
5.14601
5.09563
5.03269
4.95273
4.84948
4.71422
4.53519
4.29669
3.97879
3.55773
3.00833
2.31015
1.45931
0.488808
-0.519215
-1.44506
-2.17399
-2.60594
-2.7626
-2.71755
-2.52738
-2.28652
-2.04581
-1.81141
-1.57921
-1.35512
-1.14969
-0.967823
-0.812274
-0.678846
-0.565556
-0.470751
-0.390107
-0.320146
-0.258266
-0.203033
-0.153814
-0.110641
-0.0734241
-0.0421147
-0.016654
0.00349608
0.0189777
0.0302709
0.0379365
0.0426146
0.0448135
0.0449979
0.0435573
0.0408324
0.0371063
0.0325995
0.0274894
0.0219162
0.0159979
0.00979697
0.00345343
5.75243
5.70197
5.63105
5.57185
5.52347
5.48129
5.44623
5.41703
5.39197
5.36958
5.34845
5.32737
5.30561
5.28247
5.25715
5.2284
5.19495
5.15545
5.10803
5.05013
4.97843
4.88845
4.77431
4.62825
4.44028
4.19783
3.88575
3.4872
2.98609
2.37191
1.64832
0.843446
0.0151224
-0.764376
-1.41019
-1.8627
-2.11388
-2.18252
-2.12396
-1.99926
-1.84327
-1.66733
-1.48314
-1.30274
-1.13375
-0.980336
-0.845567
-0.728181
-0.624522
-0.532171
-0.448573
-0.37251
-0.303506
-0.241139
-0.18509
-0.13611
-0.0939118
-0.0584782
-0.0295566
-0.00657761
0.0111748
0.0243212
0.0334519
0.0392645
0.0423433
0.0431974
0.0422648
0.0399223
0.0364777
0.0321756
0.0272122
0.0217436
0.0158975
0.0097547
0.00344004
5.92853
5.77294
5.64393
5.5659
5.51174
5.46728
5.43125
5.40328
5.3799
5.35865
5.33821
5.31754
5.2958
5.27225
5.24612
5.21614
5.18102
5.13929
5.08899
5.02752
4.9515
4.85657
4.73711
4.58596
4.3942
4.15108
3.84426
3.46091
2.98993
2.42598
1.77537
1.064
0.334413
-0.357579
-0.95317
-1.40756
-1.70206
-1.84548
-1.87701
-1.83223
-1.73696
-1.60712
-1.45654
-1.3018
-1.15503
-1.0189
-0.89267
-0.775964
-0.668798
-0.570603
-0.480523
-0.398505
-0.324663
-0.258284
-0.199162
-0.147444
-0.103139
-0.0659851
-0.0355243
-0.0112342
0.0075335
0.0214666
0.0312312
0.037553
0.0410671
0.0422626
0.0415846
0.0394333
0.0361336
0.0319392
0.0270533
0.0216403
0.0158318
0.00972472
0.00341166
6.30318
5.91371
5.66238
5.56389
5.50316
5.4548
5.41873
5.39208
5.3704
5.35078
5.33164
5.31196
5.29093
5.26797
5.24206
5.2122
5.17701
5.135
5.08419
5.02197
4.94496
4.84881
4.728
4.57558
4.38305
4.14034
3.83629
3.45971
3.00166
2.45905
1.83884
1.16458
0.477971
-0.174754
-0.752995
-1.21338
-1.52985
-1.71602
-1.79512
-1.79376
-1.73555
-1.635
-1.50342
-1.35732
-1.21005
-1.06806
-0.934357
-0.810335
-0.696497
-0.592515
-0.497749
-0.411936
-0.334953
-0.266187
-0.205458
-0.152458
-0.107173
-0.0692545
-0.038198
-0.0133928
0.00583203
0.0202245
0.0304848
0.0371705
0.0408449
0.0421315
0.0415111
0.0393908
0.0361168
0.0319382
0.0270609
0.0216514
0.0158413
0.00973583
0.00339567
)
;

boundaryField
{
    ibCylinder
    {
        type            zeroGradientIb;
        patchType       immersedBoundary;
        setDeadValue    true;
        deadValue       0;
        value           nonuniform List<scalar> 0();
    }
    in
    {
        type            zeroGradient;
    }
    out
    {
        type            fixedValue;
        value           uniform 0;
    }
    top
    {
        type            zeroGradient;
    }
    bottom
    {
        type            zeroGradient;
    }
    frontAndBack
    {
        type            empty;
    }
}


// ************************************************************************* //
