/*--------------------------------*- C++ -*----------------------------------*\
| =========                 |                                                 |
| \\      /  F ield         | OpenFOAM: The Open Source CFD Toolbox           |
|  \\    /   O peration     | Version:  2206                                  |
|   \\  /    A nd           | Website:  www.openfoam.com                      |
|    \\/     M anipulation  |                                                 |
\*---------------------------------------------------------------------------*/
FoamFile
{
    version     2.0;
    format      ascii;
    arch        "LSB;label=32;scalar=64";
    class       surfaceScalarField;
    location    "0.9";
    object      phi;
}
// * * * * * * * * * * * * * * * * * * * * * * * * * * * * * * * * * * * * * //

dimensions      [0 3 -1 0 0 0 0];

oriented        oriented;

internalField   nonuniform List<scalar> 
3650
(
0.0027519
0.000448097
0.00224621
0.000505691
0.00181862
0.000427596
0.00148888
0.000329742
0.00124715
0.000241721
0.00107663
0.000170525
0.000957556
0.000119075
0.000874911
8.26452e-05
0.000817358
5.75531e-05
0.000777334
4.0025e-05
0.000750407
2.69268e-05
0.000733995
1.64118e-05
0.000726791
7.20366e-06
0.000728438
-1.64794e-06
0.000738795
-1.03564e-05
0.000758942
-2.01477e-05
0.000790466
-3.15231e-05
0.000835439
-4.49745e-05
0.000896593
-6.11527e-05
0.000977408
-8.08168e-05
0.00108218
-0.000104775
0.00121601
-0.000133827
0.00138466
-0.000168654
0.0015943
-0.00020964
0.00185086
-0.000256553
0.00215898
-0.000308124
0.00252045
-0.000361464
0.0029319
-0.000411459
0.0033821
-0.000450202
0.00385087
-0.000468769
0.00430506
-0.000454186
0.00469688
-0.000391824
0.00497599
-0.000279108
0.00509796
-0.000121975
0.005042
5.59644e-05
0.00480932
0.000232674
0.00442747
0.000381854
0.00393272
0.000494747
0.00337529
0.000557427
0.00280579
0.000569502
0.00226949
0.000536303
0.00179832
0.000471168
0.00140451
0.000393813
0.00108293
0.000321572
0.000824927
0.000258008
0.000622126
0.000202801
0.000467291
0.000154836
0.00035368
0.000113612
0.000274818
7.88626e-05
0.000225085
4.97321e-05
0.000199634
2.54524e-05
0.000193538
6.09495e-06
0.000201269
-7.73003e-06
0.000219375
-1.81065e-05
0.000245128
-2.57517e-05
0.00027576
-3.06332e-05
0.000308376
-3.26142e-05
0.000341131
-3.27553e-05
0.000372525
-3.13935e-05
0.00040149
-2.89661e-05
0.000427342
-2.58509e-05
0.000449916
-2.25748e-05
0.000469284
-1.93664e-05
0.000485515
-1.62317e-05
0.000498843
-1.33273e-05
0.000509638
-1.07955e-05
0.000518274
-8.636e-06
0.000525138
-6.86369e-06
0.000530529
-5.39081e-06
0.000534715
-4.18647e-06
0.000537934
-3.21825e-06
0.000540383
-2.44909e-06
0.000542226
-1.84294e-06
0.000543588
-1.3619e-06
-1.05336e-06
0.00336588
0.000282216
0.00335328
0.000518294
0.00323703
0.000543848
0.00306264
0.000504124
0.00285914
0.00044523
0.00265675
0.000372907
0.00247651
0.000299318
0.00232487
0.000234284
0.00220109
0.000181332
0.00210272
0.000138399
0.00202714
0.000102505
0.00197162
7.19329e-05
0.00193433
4.44918e-05
0.00191453
1.81545e-05
0.00191231
-8.13339e-06
0.00192833
-3.6172e-05
0.00196463
-6.78226e-05
0.00202371
-0.000104052
0.00210905
-0.000146496
0.00222514
-0.000196902
0.00237748
-0.00025712
0.00257256
-0.000328905
0.00281765
-0.000413742
0.00312049
-0.000512489
0.00348872
-0.000624782
0.00392884
-0.00074824
0.00444469
-0.000877318
0.00503526
-0.00100203
0.00569173
-0.00110668
0.00639394
-0.00117098
0.00710951
-0.00116976
0.00779293
-0.00107524
0.00838491
-0.000871087
0.0088254
-0.000562463
0.009061
-0.000179635
0.00908115
0.000212524
0.00889697
0.000566024
0.00853363
0.000858088
0.00802004
0.00107101
0.00739009
0.00119945
0.00667281
0.00125358
0.00589717
0.00124681
0.00509975
0.00119123
0.00432386
0.00109746
0.00360894
0.000972933
0.00298375
0.000827987
0.00246104
0.000677546
0.00204005
0.000534602
0.00171469
0.000404222
0.00147421
0.000290215
0.00130524
0.000194421
0.00119491
0.000116424
0.00113266
5.45184e-05
0.00110824
6.31316e-06
0.00111075
-2.82554e-05
0.00113176
-5.16415e-05
0.0011645
-6.53578e-05
0.00120322
-7.14746e-05
0.00124467
-7.28463e-05
0.00128551
-6.98018e-05
0.00132374
-6.40797e-05
0.00135832
-5.71546e-05
0.00138862
-4.96657e-05
0.00141461
-4.22224e-05
0.00143648
-3.51937e-05
0.00145457
-2.88856e-05
0.00146934
-2.34082e-05
0.00148122
-1.87442e-05
0.00149067
-1.48381e-05
0.00149809
-1.16148e-05
0.00150387
-8.99543e-06
0.00150831
-6.89104e-06
0.00151168
-5.20893e-06
0.00151421
-3.89265e-06
-2.76024e-06
0.00332659
0.00015563
0.00346336
0.000381523
0.00353214
0.000475065
0.00354267
0.000493595
0.00350871
0.000479194
0.00344104
0.00044057
0.00335122
0.000389141
0.00324986
0.000335646
0.00314889
0.000282303
0.00305692
0.000230375
0.00297782
0.000181605
0.00291285
0.000136896
0.0028629
9.44428e-05
0.00282897
5.2085e-05
0.00281252
8.31424e-06
0.002815
-3.8649e-05
0.00283822
-9.10441e-05
0.00288477
-0.000150596
0.00295803
-0.000219758
0.00306215
-0.000301028
0.00320237
-0.000397332
0.00338495
-0.000511491
0.00361724
-0.000646031
0.00390753
-0.000802777
0.00426477
-0.000982023
0.00469806
-0.00118153
0.00521544
-0.00139469
0.00582172
-0.00160831
0.00651527
-0.00180022
0.00728447
-0.00194019
0.00809975
-0.00198503
0.0089096
-0.0018851
0.00964309
-0.00160458
0.0102174
-0.00113678
0.0105787
-0.000540956
0.0107242
6.70327e-05
0.0106671
0.000623114
0.0104443
0.00108088
0.0100944
0.00142096
0.00964538
0.00164847
0.00910472
0.00179424
0.00847905
0.00187248
0.00778292
0.00188737
0.00703878
0.00184159
0.00627135
0.00174037
0.00550787
0.00159147
0.00478022
0.00140519
0.0041212
0.00119362
0.00355533
0.000970093
0.00309356
0.000751986
0.00273508
0.000552906
0.00247003
0.000381474
0.00228463
0.000239914
0.00216317
0.000127774
0.00209162
4.32917e-05
0.00205726
-1.7279e-05
0.00204945
-5.75468e-05
0.00205916
-8.11845e-05
0.00208013
-9.38172e-05
0.00210648
-9.61469e-05
0.00213475
-9.2351e-05
0.00216313
-8.55356e-05
0.00218973
-7.62634e-05
0.00221371
-6.62028e-05
0.0022347
-5.61893e-05
0.00225264
-4.68261e-05
0.00226766
-3.84274e-05
0.00228002
-3.11032e-05
0.00229005
-2.48614e-05
0.00229807
-1.96401e-05
0.00230442
-1.53391e-05
0.00230937
-1.18466e-05
0.00231318
-9.01369e-06
0.00231611
-6.8283e-06
-4.74538e-06
0.00326322
9.2411e-05
0.00339084
0.000253899
0.00350797
0.000357941
0.00359149
0.000410069
0.00364508
0.000425605
0.00367052
0.000415128
0.00366976
0.000389903
0.00364915
0.000356256
0.00361665
0.000314805
0.00357773
0.000269298
0.00353553
0.000223804
0.00349472
0.000177713
0.0034592
0.000129953
0.00343194
7.93478e-05
0.00341576
2.44911e-05
0.00341312
-3.60005e-05
0.00342607
-0.000103995
0.0034572
-0.000181733
0.00351013
-0.000272681
0.00358848
-0.000379384
0.00369698
-0.000505828
0.00384232
-0.000656828
0.00403243
-0.000836143
0.00427703
-0.00104738
0.00458792
-0.00129291
0.00497891
-0.00157252
0.00546533
-0.00188112
0.00606251
-0.00220549
0.00678276
-0.00252048
0.00763221
-0.00278963
0.0085725
-0.00292532
0.00950478
-0.00281738
0.0103103
-0.00241012
0.0108937
-0.00172016
0.0112379
-0.000885169
0.0113401
-3.51909e-05
0.0112413
0.000721963
0.0110142
0.00130799
0.010708
0.00172713
0.0103459
0.00201054
0.00993434
0.00220583
0.00947386
0.00233297
0.00896328
0.00239795
0.00840439
0.00240048
0.00780206
0.0023427
0.00716874
0.00222478
0.00651595
0.00205799
0.00586358
0.00184599
0.00523941
0.00159426
0.00467188
0.00131952
0.00418182
0.00104296
0.00377944
0.000783854
0.00346463
0.000554724
0.00322922
0.000363178
0.0030612
0.000211317
0.00294721
9.67121e-05
0.00287501
1.46458e-05
0.00283407
-4.02371e-05
0.00281425
-7.4e-05
0.00280911
-9.10067e-05
0.00281356
-9.68055e-05
0.00282322
-9.51878e-05
0.00283571
-8.87567e-05
0.00284942
-7.99137e-05
0.00286298
-6.97471e-05
0.00287558
-5.94279e-05
0.0028868
-4.96512e-05
0.00289651
-4.08043e-05
0.0029047
-3.30584e-05
0.0029115
-2.64326e-05
0.00291703
-2.0869e-05
0.00292146
-1.6285e-05
0.00292495
-1.25003e-05
0.00292772
-9.60106e-06
-6.6757e-06
0.00323347
5.89446e-05
0.00331592
0.000171443
0.00341662
0.00025724
0.00351418
0.000312514
0.00359763
0.000342158
0.00366187
0.000350885
0.00370737
0.000344408
0.00373775
0.000325875
0.00375589
0.000296664
0.00376301
0.000262176
0.00376171
0.000225105
0.0037556
0.000183828
0.00374764
0.000137905
0.00374068
8.63143e-05
0.00373716
2.80097e-05
0.00373919
-3.80327e-05
0.00374895
-0.000113748
0.00376885
-0.000201634
0.00380208
-0.000305915
0.00385246
-0.000429758
0.00392484
-0.000578217
0.004026
-0.000757983
0.00416443
-0.000974572
0.00435161
-0.00123456
0.00460301
-0.00154431
0.00493899
-0.00190851
0.00538545
-0.00232757
0.00597424
-0.00279429
0.0067424
-0.00328863
0.0077101
-0.00375734
0.00873368
-0.0039489
0.00963762
-0.00372133
0.0103321
-0.00310455
0.0107098
-0.00209788
0.0108012
-0.000976622
0.0107113
5.47263e-05
0.0105038
0.000929522
0.0102461
0.00156561
0.0100109
0.00196239
0.00978219
0.00223923
0.00952864
0.00245938
0.00924526
0.00261634
0.00893198
0.00271123
0.00857101
0.00276145
0.00814917
0.00276454
0.00768763
0.00268632
0.00719527
0.00255035
0.00668784
0.00235342
0.00617946
0.00210264
0.00568258
0.0018164
0.00521328
0.00151226
0.00479039
0.00120674
0.00442688
0.000918228
0.00412778
0.000662284
0.00389114
0.000447958
0.00371058
0.000277274
0.00357738
0.000147842
0.00348245
5.46957e-05
0.00341695
-8.50012e-06
0.00337443
-4.84884e-05
0.00334831
-7.06848e-05
0.00333333
-8.02072e-05
0.0033263
-8.17275e-05
0.00332446
-7.80769e-05
0.00332594
-7.1223e-05
0.00332944
-6.2929e-05
0.00333393
-5.41385e-05
0.00333867
-4.55523e-05
0.00334325
-3.76298e-05
0.00334741
-3.05945e-05
0.00335105
-2.4509e-05
0.00335414
-1.93804e-05
0.00335669
-1.505e-05
0.0033588
-1.17083e-05
-8.19554e-06
0.00321903
3.99137e-05
0.00327114
0.000119335
0.00334327
0.000185109
0.00342341
0.000232373
0.0035032
0.000262375
0.00357661
0.000277474
0.00364084
0.000280172
0.00369455
0.000272174
0.00373656
0.000254653
0.0037686
0.000230138
0.00379313
0.000200572
0.00381164
0.000165323
0.00382587
0.000123673
0.00383673
7.54507e-05
0.00384481
1.99335e-05
0.00385187
-4.50955e-05
0.00385976
-0.000121635
0.00387057
-0.000212441
0.00388655
-0.000321894
0.00391157
-0.000454783
0.00395002
-0.000616664
0.00400713
-0.000815096
0.0040913
-0.00105874
0.00421472
-0.00135797
0.00439525
-0.00172484
0.00465913
-0.0021724
0.00504433
-0.00271276
0.00560454
-0.00335451
0.00640394
-0.00408803
0.00735545
-0.00470886
0.0081371
-0.00473054
0.00858148
-0.0041657
0.0086277
-0.00315077
0.00810253
-0.00157271
0.00746308
-0.000337167
0.00710512
0.000412687
0.00699283
0.00104181
0.00701601
0.00154242
0.00719846
0.00177994
0.00744308
0.0019946
0.00766279
0.00223967
0.00779762
0.00248151
0.00782345
0.0026854
0.00775162
0.00283328
0.00759643
0.00291974
0.00736615
0.00291661
0.00707653
0.00283996
0.00674361
0.00268634
0.00638092
0.00246534
0.00600743
0.00218989
0.00564058
0.00187911
0.00529269
0.00155463
0.0049745
0.00123642
0.00469269
0.000944094
0.00445083
0.000689816
0.00425003
0.000478079
0.0040883
0.000309571
0.00396149
0.000181503
0.00386437
8.86177e-05
0.00379159
2.42958e-05
0.00373853
-1.76297e-05
0.00370105
-4.27228e-05
0.0036752
-5.58795e-05
0.00365792
-6.07949e-05
0.00364692
-6.0221e-05
0.00364035
-5.63586e-05
0.00363687
-5.06608e-05
0.00363549
-4.41705e-05
0.00363543
-3.75749e-05
0.00363614
-3.12996e-05
0.00363721
-2.55809e-05
0.0036384
-2.05752e-05
0.00363956
-1.62082e-05
0.00364061
-1.27587e-05
-9.0132e-06
0.00321186
2.80545e-05
0.00324645
8.47414e-05
0.0032976
0.000133967
0.00335836
0.000171612
0.00342326
0.000197471
0.00348819
0.000212543
0.00355037
0.000217995
0.00360764
0.0002149
0.00365817
0.000204131
0.00370153
0.000186777
0.00373844
0.000163663
0.00376914
0.000134623
0.00379367
9.91427e-05
0.00381248
5.66412e-05
0.00382606
6.35393e-06
0.00383471
-5.37489e-05
0.00383939
-0.000126315
0.00384139
-0.000214443
0.00384167
-0.000322174
0.00384168
-0.000454786
0.00384411
-0.000619094
0.00385299
-0.000823981
0.00387509
-0.00108084
0.00392143
-0.00140431
0.00400987
-0.00181328
0.0041692
-0.00233173
0.00444513
-0.00298869
0.00490355
-0.00381293
0.00558745
-0.00477193
0.0061109
-0.0052323
0.00571251
-0.00433214
0.00362267
-0.00182722
0.00135726
-2.77514e-18
0.000246412
-3.14637e-18
-2.32977e-05
-3.43302e-18
0.000101565
-3.71813e-18
0.0004818
-4.4854e-18
0.0011515
0.000158808
0.00209601
0.000835424
0.00312524
0.00096538
0.00405917
0.00130574
0.00483887
0.00170181
0.00542328
0.00210099
0.00581532
0.00244124
0.00605803
0.00267703
0.00617008
0.00280456
0.00617824
0.00283181
0.00610472
0.00275986
0.00596333
0.00260673
0.00577441
0.00237881
0.00555688
0.00209663
0.00532594
0.00178557
0.0050959
0.00146647
0.00487962
0.00116037
0.00468423
0.000885204
0.00451238
0.00064993
0.00436433
0.000457622
0.00423968
0.000306153
0.004137
0.000191292
0.00405428
0.000107018
0.00398914
4.75124e-05
0.00393901
7.40686e-06
0.00390123
-1.81035e-05
0.00387335
-3.29079e-05
0.00385321
-4.00863e-05
0.00383895
-4.20963e-05
0.00382908
-4.0788e-05
0.00382243
-3.75219e-05
0.0038181
-3.32505e-05
0.00381542
-2.86128e-05
0.00381385
-2.40094e-05
0.00381301
-1.9736e-05
0.00381262
-1.58248e-05
0.00381251
-1.26426e-05
-9.04893e-06
0.00320814
1.99158e-05
0.00323252
6.03634e-05
0.00326992
9.6568e-05
0.00331614
0.000125391
0.00336756
0.000146049
0.00342121
0.000158893
0.00347472
0.00016449
0.00352621
0.000163408
0.00357418
0.000156162
0.00361764
0.000143317
0.00365607
0.000125236
0.0036889
0.000101794
0.00371549
7.25501e-05
0.00373542
3.6712e-05
0.00374858
-6.80822e-06
0.00375456
-5.97208e-05
0.00375273
-0.000124489
0.00374258
-0.000204295
0.00372371
-0.000303299
0.00369594
-0.000427013
0.00365962
-0.000582777
0.00361608
-0.000780446
0.0035686
-0.00103336
0.00352394
-0.00135965
0.00349499
-0.00178433
0.00350506
-0.00234179
0.003594
-0.00307763
0.00380775
-0.00402668
0.00396858
-0.00493276
0.00305902
-0.00432273
0.000716443
-0.000828157
-5.25758e-19
-7.46606e-19
1.14478e-20
-2.69585e-19
1.29355e-19
-6.39192e-20
1.99506e-20
-4.55227e-20
-6.50637e-20
-1.00053e-20
-7.17005e-20
1.00029e-20
-0.000266008
-1.31663e-18
-0.00127796
-2.76407e-18
-0.000495318
0.000182734
0.00053692
0.000273503
0.00156807
0.000670654
0.00249241
0.00117665
0.00326123
0.00167242
0.00385723
0.00208103
0.00429153
0.00237026
0.00460105
0.00252228
0.00480939
0.00255152
0.00493318
0.00248294
0.00498611
0.00232588
0.00497942
0.00210332
0.00492725
0.00183774
0.00484261
0.0015511
0.0047388
0.00126418
0.00462806
0.000995946
0.00451888
0.000759111
0.00441584
0.000560666
0.00432234
0.000399648
0.00424043
0.0002732
0.00417043
0.000177025
0.00411194
0.000106001
0.00406408
5.52596e-05
0.00402576
2.02259e-05
0.00399567
-2.82233e-06
0.00397251
-1.69251e-05
0.00395494
-2.45323e-05
0.00394181
-2.76493e-05
0.0039321
-2.78211e-05
0.00392504
-2.61809e-05
0.00391995
-2.35286e-05
0.00391634
-2.04025e-05
0.00391382
-1.72105e-05
0.00391208
-1.40834e-05
0.00391088
-1.14497e-05
-8.32355e-06
0.00320602
1.38959e-05
0.0032242
4.21853e-05
0.00325277
6.79966e-05
0.00328904
8.91239e-05
0.00333038
0.000104708
0.00337456
0.000114715
0.00341966
0.000119389
0.00346402
0.000119051
0.0035062
0.000113978
0.00354509
0.00010443
0.00357978
9.05472e-05
0.00360939
7.21886e-05
0.00363294
4.89949e-05
0.00364942
2.02349e-05
0.00365777
-1.51579e-05
0.00365677
-5.87209e-05
0.00364492
-0.000112639
0.00362044
-0.000179814
0.00358128
-0.00026414
0.00352512
-0.000370852
0.00344943
-0.000507084
0.00335165
-0.00068267
0.00322967
-0.000911366
0.00308279
-0.00121277
0.00291349
-0.00161503
0.00273004
-0.00215834
0.00254573
-0.00289332
0.00228793
-0.00376887
0.0014583
-0.00410313
-0.000149086
-0.0014204
1.43077e-18
7.73925e-19
2.22324e-19
-1.67281e-19
1.87669e-19
3.16825e-20
6.75382e-21
-5.11398e-20
1.18521e-21
-8.12265e-22
2.82899e-24
1.00069e-23
-4.71369e-20
-1.30829e-20
-2.34506e-19
-1.09172e-20
9.211e-19
1.04297e-20
-0.00208946
-2.2019e-18
-0.00152822
-0.000287737
-0.00075023
-0.000107336
5.76853e-05
0.000368734
0.000833132
0.000896974
0.00154382
0.00137034
0.00217064
0.00174344
0.00270474
0.00198818
0.00314616
0.0021101
0.00350748
0.00212162
0.00379263
0.00204073
0.00400702
0.00188892
0.00415756
0.0016872
0.00425271
0.00145595
0.0043021
0.0012148
0.00431615
0.000981894
0.00430519
0.000770069
0.00427883
0.000587025
0.00424386
0.000434615
0.00420558
0.00031148
0.00416754
0.000215068
0.00413202
0.000141522
0.0041002
8.70834e-05
0.00407254
4.78762e-05
0.00404915
2.0575e-05
0.00402971
2.51349e-06
0.00401387
-8.69581e-06
0.00400113
-1.49103e-05
0.00399103
-1.77158e-05
0.00398311
-1.82676e-05
0.00397698
-1.7397e-05
0.00397228
-1.57003e-05
0.0039687
-1.36341e-05
0.00396602
-1.13977e-05
0.00396398
-9.41546e-06
-6.94726e-06
0.00320473
9.16629e-06
0.00321906
2.7852e-05
0.00324195
4.51106e-05
0.00327157
5.95038e-05
0.00330595
7.03289e-05
0.00334325
7.74201e-05
0.00338179
8.08417e-05
0.00342009
8.07556e-05
0.00345677
7.72989e-05
0.00349062
7.0582e-05
0.00352054
6.06315e-05
0.00354542
4.73009e-05
0.00356412
3.02953e-05
0.00357514
9.21331e-06
0.00357699
-1.7007e-05
0.0035678
-4.95311e-05
0.00354525
-9.00822e-05
0.00350645
-0.000141011
0.00344779
-0.000205486
0.00336479
-0.000287846
0.00325182
-0.000394114
0.00310193
-0.000532773
0.00290656
-0.000716004
0.00265544
-0.000961646
0.00233671
-0.00129629
0.00193752
-0.00175915
0.00143219
-0.00238799
0.000679756
-0.00301643
-0.000851796
-0.00257158
2.64776e-18
1.52136e-18
5.86259e-19
4.94657e-19
1.02152e-19
9.70224e-20
-2.74168e-20
-3.39533e-20
-1.2657e-22
-1.24038e-21
6.99527e-25
2.64132e-26
1.51884e-24
2.05898e-26
3.61851e-24
6.02745e-26
1.6659e-21
1.76582e-25
-2.32798e-19
1.15902e-21
1.0575e-18
-3.4068e-20
-0.00233063
-0.000229297
-0.00198082
-0.00045715
-0.00149396
-0.000118126
-0.000937651
0.000340665
-0.000341166
0.000773858
0.000270959
0.00113132
0.000873609
0.00138553
0.00144738
0.00153633
0.00197712
0.00159188
0.00244995
0.0015679
0.00285799
0.00148088
0.00319762
0.00134758
0.00346958
0.00118399
0.00367836
0.00100602
0.00383143
0.000828821
0.00393802
0.000663477
0.00400824
0.000516802
0.00405109
0.000391764
0.00407396
0.000288618
0.00408296
0.000206062
0.0040828
0.000141683
0.00407697
9.29153e-05
0.00406798
5.68666e-05
0.00405762
3.09373e-05
0.00404695
1.31812e-05
0.00403669
1.5682e-06
0.00402725
-5.47672e-06
0.00401892
-9.38425e-06
0.00401178
-1.11282e-05
0.00400579
-1.14109e-05
0.00400087
-1.07763e-05
0.00399688
-9.64373e-06
0.00399371
-8.23133e-06
0.0039912
-6.89926e-06
-5.15936e-06
0.00320395
5.2172e-06
0.00321594
1.58612e-05
0.00323528
2.57697e-05
0.00326066
3.41304e-05
0.00329049
4.04939e-05
0.0033232
4.47116e-05
0.00335726
4.6782e-05
0.00339125
4.67722e-05
0.00342381
4.47389e-05
0.00345366
4.07262e-05
0.00347957
3.4721e-05
0.00350028
2.65977e-05
0.00351447
1.61016e-05
0.00352046
3.21894e-06
0.00351638
-1.2924e-05
0.00349988
-3.30242e-05
0.00346801
-5.82143e-05
0.00341702
-9.00247e-05
0.00334206
-0.00013052
0.00323678
-0.000182567
0.00309287
-0.000250199
0.00289927
-0.000339172
0.00264114
-0.000457875
0.00229833
-0.000618831
0.0018432
-0.000841157
0.00123686
-0.00115279
0.000420458
-0.00157159
-0.000645695
-0.00195027
2.65433e-18
-0.000945078
2.41003e-18
1.15633e-18
6.14942e-20
-9.52705e-20
-5.47999e-20
-5.80345e-20
-1.08355e-20
-1.57966e-20
2.37883e-25
9.64952e-27
4.54526e-25
-8.25404e-28
1.0438e-24
-2.62063e-29
2.27088e-24
4.01001e-26
4.94718e-24
6.47801e-26
-1.62325e-19
1.08829e-25
4.80468e-20
-1.77269e-20
-0.0024454
-5.60906e-05
-0.0024665
-0.000436044
-0.00234512
-0.000239512
-0.0020621
5.76491e-05
-0.00164455
0.000356307
-0.00112795
0.000614712
-0.000546123
0.000803707
6.69092e-05
0.000923301
0.000679398
0.00097939
0.0012653
0.000982003
0.00180542
0.000940753
0.00228621
0.000866792
0.00270048
0.000769714
0.00304561
0.000660891
0.00332311
0.000551321
0.00353928
0.000447314
0.00370282
0.000353256
0.00382292
0.000271669
0.00390818
0.000203353
0.00396639
0.000147855
0.0040041
0.000103967
0.00402682
7.02028e-05
0.00403879
4.4894e-05
0.00404334
2.63906e-05
0.0040431
1.34128e-05
0.00403999
4.6872e-06
0.00403517
-6.59654e-07
0.00402967
-3.88988e-06
0.00402415
-5.60104e-06
0.00401898
-6.24426e-06
0.00401437
-6.17158e-06
0.0040104
-5.67165e-06
0.0040071
-4.92478e-06
0.00400437
-4.17486e-06
-3.15479e-06
0.00320352
1.69854e-06
0.00321423
5.14675e-06
0.00323162
8.37955e-06
0.00325462
1.1131e-05
0.00328189
1.32278e-05
0.00331198
1.46243e-05
0.00334345
1.53158e-05
0.0033749
1.53184e-05
0.00340499
1.46469e-05
0.00343241
1.33133e-05
0.00345582
1.13118e-05
0.00347382
8.59507e-06
0.00348489
5.02633e-06
0.00348747
6.46041e-07
0.00347935
-4.81137e-06
0.0034579
-1.15709e-05
0.0034198
-2.01069e-05
0.0033607
-3.09312e-05
0.00327493
-4.47472e-05
0.00315493
-6.2557e-05
0.00299051
-8.5779e-05
0.00276779
-0.00011645
0.00246747
-0.000157554
0.00206222
-0.00021358
0.00151245
-0.00029138
0.000760229
-0.000400562
-0.00026654
-0.00054481
-0.00154288
-0.000673925
5.43294e-18
-0.000215765
1.23822e-18
-4.49354e-19
8.98479e-20
-1.81488e-19
-5.39134e-20
-1.64806e-20
-3.87356e-21
-2.3171e-21
1.89628e-25
-3.24417e-28
3.88138e-25
-5.99821e-29
8.60619e-25
2.25072e-26
1.55695e-24
2.747e-27
3.39841e-24
8.299e-27
-1.2659e-19
2.77743e-26
-6.33119e-19
-3.5335e-21
-0.00232423
-4.0527e-06
-0.00259777
-0.000162503
-0.00272779
-0.000109492
-0.00266089
-9.25681e-06
-0.00240008
9.55007e-05
-0.00197731
0.00019194
-0.00143509
0.000261489
-0.000818744
0.000306956
-0.000169118
0.000329763
0.000478952
0.000333933
0.00109705
0.00032265
0.00166441
0.000299442
0.00216665
0.000267472
0.00259756
0.000229977
0.002956
0.000192886
0.00324533
0.000157978
0.00347304
0.000125544
0.00364755
9.71606e-05
0.00377766
7.3245e-05
0.00387183
5.36838e-05
0.00393769
3.81132e-05
0.00398184
2.60523e-05
0.00400978
1.69525e-05
0.00402591
1.02543e-05
0.00403382
5.50397e-06
0.00403629
2.21714e-06
0.00403538
2.50381e-07
0.00403246
-9.70273e-07
0.0040285
-1.63814e-06
0.0040242
-1.9455e-06
0.00402002
-1.99013e-06
0.00401621
-1.86458e-06
0.00401292
-1.63515e-06
0.00401014
-1.39481e-06
-1.06018e-06
0.00320337
-1.67562e-06
0.00321366
-5.13515e-06
0.00323041
-8.37003e-06
0.00325266
-1.11226e-05
0.00327911
-1.32206e-05
0.00330835
-1.46164e-05
0.00333897
-1.53057e-05
0.0033696
-1.53054e-05
0.00339888
-1.46303e-05
0.00342548
-1.32928e-05
0.00344808
-1.12867e-05
0.00346524
-8.56451e-06
0.00347526
-4.99056e-06
0.00347651
-6.05006e-07
0.00346684
4.85472e-06
0.00344366
1.16149e-05
0.0034034
2.01514e-05
0.0033415
3.09741e-05
0.00325197
4.47859e-05
0.00312683
6.25881e-05
0.00295525
8.57999e-05
0.00272234
0.000116457
0.00240725
0.000157546
0.00198012
0.000213552
0.00139742
0.00029133
0.000596384
0.000400476
-0.000493094
0.000544676
-0.00184086
0.00067385
4.99809e-18
0.000215564
9.62389e-19
4.48426e-19
1.16665e-19
1.81456e-19
-5.16909e-20
1.64665e-20
-1.80422e-21
2.31724e-21
1.69048e-25
3.27907e-28
3.97827e-25
1.5883e-28
6.91668e-25
-2.81047e-26
1.44981e-24
-2.91381e-27
3.2023e-24
-8.33852e-27
-1.3188e-19
-2.77621e-26
-7.6732e-19
3.3772e-21
-0.00228031
4.06335e-06
-0.00260593
0.000163115
-0.00282555
0.000110128
-0.00284456
9.75574e-06
-0.00265386
-9.52023e-05
-0.0022701
-0.000191812
-0.00174709
-0.00026152
-0.00113302
-0.000307115
-0.000473251
-0.000330011
0.000194914
-0.000334233
0.000840528
-0.000322964
0.0014397
-0.000299734
0.00197488
-0.000267707
0.00243499
-0.000230134
0.00282086
-0.000192979
0.00313686
-0.000158026
0.00338796
-0.000125552
0.00358226
-9.71393e-05
0.00372871
-7.32083e-05
0.00383604
-5.36422e-05
0.00391222
-3.80738e-05
0.00396429
-2.60189e-05
0.00399817
-1.69275e-05
0.00401867
-1.02375e-05
0.00402967
-5.4947e-06
0.0040341
-2.21344e-06
0.0040346
-2.50598e-07
0.00403266
9.67625e-07
0.00402939
1.6342e-06
0.0040255
1.94103e-06
0.00402152
1.98544e-06
0.0040178
1.85992e-06
0.00401453
1.63078e-06
0.00401175
1.39063e-06
1.05685e-06
0.00320352
-5.1939e-06
0.00321423
-1.58502e-05
0.00323162
-2.57607e-05
0.00325462
-3.4122e-05
0.00328189
-4.04867e-05
0.00331198
-4.47036e-05
0.00334345
-4.67719e-05
0.0033749
-4.67592e-05
0.00340499
-4.47226e-05
0.00343241
-4.07059e-05
0.00345581
-3.46962e-05
0.00347382
-2.65676e-05
0.00348489
-1.60665e-05
0.00348747
-3.17898e-06
0.00347936
1.2967e-05
0.00345791
3.30685e-05
0.0034198
5.82589e-05
0.00336071
9.00677e-05
0.00327494
0.000130558
0.00315493
0.000182599
0.00299051
0.000250221
0.00276779
0.000339182
0.00246747
0.00045787
0.00206222
0.000618809
0.00151244
0.000841114
0.00076021
0.00115271
-0.000266579
0.00157147
-0.00154291
0.00195019
5.43216e-18
0.000944848
1.23803e-18
-1.15984e-18
8.98844e-20
9.51582e-20
-5.39307e-20
5.79985e-20
-3.87503e-21
1.57905e-20
1.88604e-25
-9.63183e-27
3.82906e-25
9.05074e-28
8.58982e-25
2.44563e-28
1.55695e-24
-4.0111e-26
3.39848e-24
-6.47328e-26
-1.26599e-19
-1.08743e-25
-6.3308e-19
1.77576e-20
-0.00232431
5.61798e-05
-0.00259788
0.000436684
-0.00272793
0.000240183
-0.00266099
-5.71892e-05
-0.00240015
-0.000356042
-0.00197733
-0.000614633
-0.00143506
-0.000803788
-0.000818673
-0.000923501
-0.000169016
-0.000979668
0.000479072
-0.000982321
0.00109718
-0.000941072
0.00166452
-0.000867076
0.00216675
-0.000769933
0.00259765
-0.000661034
0.00295607
-0.000551399
0.00324538
-0.000447341
0.00347308
-0.000353246
0.00364757
-0.000271635
0.00377767
-0.000203309
0.00387184
-0.00014781
0.00393769
-0.000103926
0.00398184
-7.01689e-05
0.00400978
-4.48689e-05
0.00402592
-2.6374e-05
0.00403383
-1.34035e-05
0.0040363
-4.68337e-06
0.00403539
6.59797e-07
0.00403247
3.88799e-06
0.0040285
5.59775e-06
0.0040242
6.24029e-06
0.00402002
6.16742e-06
0.00401621
5.66749e-06
0.00401292
4.92079e-06
0.00401014
4.171e-06
3.15168e-06
0.00320395
-9.14346e-06
0.00321594
-2.78413e-05
0.00323528
-4.51019e-05
0.00326066
-5.94954e-05
0.00329049
-7.03216e-05
0.0033232
-7.74121e-05
0.00335726
-8.08318e-05
0.00339124
-8.07429e-05
0.00342381
-7.7283e-05
0.00345366
-7.05622e-05
0.00347957
-6.06072e-05
0.00350028
-4.72719e-05
0.00351447
-3.02613e-05
0.00352047
-9.17463e-06
0.00351639
1.70492e-05
0.00349988
4.95753e-05
0.00346802
9.01267e-05
0.00341703
0.000141053
0.00334207
0.000205524
0.00323679
0.000287878
0.00309288
0.000394138
0.00289928
0.000532787
0.00264115
0.000716004
0.00229833
0.00096163
0.00184319
0.00129626
0.00123683
0.00175908
0.000420428
0.00238788
-0.000645547
0.00301617
2.65992e-18
0.0025715
2.41368e-18
-1.52664e-18
6.15582e-20
-4.98685e-19
-5.47927e-20
-9.69521e-20
-1.08328e-20
3.39402e-20
2.37799e-25
1.24028e-21
4.54556e-25
-2.64019e-26
1.04378e-24
-2.04908e-26
2.27097e-24
-6.02254e-26
4.94742e-24
-1.76459e-25
-1.62335e-19
-1.19925e-21
4.84301e-20
3.40008e-20
-0.00244561
0.000229594
-0.00246674
0.000457814
-0.00234539
0.000118832
-0.00206231
-0.000340259
-0.00164467
-0.000773683
-0.00112797
-0.00113134
-0.000546052
-0.0013857
6.70565e-05
-0.00153661
0.000679599
-0.00159221
0.00126553
-0.00156825
0.00180565
-0.0014812
0.00228642
-0.00134784
0.00270066
-0.00118418
0.00304576
-0.00100613
0.00332322
-0.000828861
0.00353935
-0.000663469
0.00370286
-0.000516765
0.00382294
-0.000391713
0.0039082
-0.000288563
0.0039664
-0.000206012
0.00400411
-0.000141641
0.00402683
-9.2882e-05
0.0040388
-5.68425e-05
0.00404335
-3.09214e-05
0.00404311
-1.31718e-05
0.00404
-1.56366e-06
0.00403518
5.47799e-06
0.00402968
9.38338e-06
0.00402415
1.11261e-05
0.00401898
1.14081e-05
0.00401438
1.07731e-05
0.00401041
9.64045e-06
0.0040071
8.22802e-06
0.00400437
6.89597e-06
5.15666e-06
0.00320473
-1.38751e-05
0.00321906
-4.21744e-05
0.00324195
-6.79877e-05
0.00327157
-8.91156e-05
0.00330595
-0.0001047
0.00334325
-0.000114707
0.00338179
-0.00011938
0.00342009
-0.000119039
0.00345677
-0.000113963
0.00349062
-0.000104411
0.00352053
-9.05238e-05
0.00354542
-7.2161e-05
0.00356413
-4.89624e-05
0.00357515
-2.0198e-05
0.003577
1.51989e-05
0.00356781
5.87641e-05
0.00354526
0.000112682
0.00350646
0.000179856
0.00344781
0.000264178
0.0033648
0.000370885
0.00325183
0.000507109
0.00310194
0.000682687
0.00290657
0.000911373
0.00265544
0.00121276
0.0023367
0.00161501
0.00193749
0.00215829
0.00143213
0.00289324
0.000679818
0.0037685
-0.000851766
0.00410309
2.6598e-18
0.00142043
5.91316e-19
-7.80892e-19
1.02205e-19
1.65816e-19
-2.74154e-20
-3.17774e-20
-1.26565e-22
5.11333e-20
6.99861e-25
8.12315e-22
1.51914e-24
-9.9656e-24
3.61913e-24
1.31268e-20
1.60106e-21
1.0922e-20
-2.32563e-19
-1.00437e-20
1.05703e-18
2.20035e-18
-0.00233093
0.000288331
-0.00198125
0.000108133
-0.00149429
-0.000368123
-0.000937878
-0.000896675
-0.000341262
-0.0013703
0.000271001
-0.0017436
0.000873773
-0.00198848
0.00144763
-0.00211047
0.00197742
-0.002122
0.00245026
-0.00204109
0.00285829
-0.00188923
0.00319788
-0.00168743
0.00346978
-0.00145608
0.0036785
-0.00121485
0.00383152
-0.000981884
0.00393808
-0.000770023
0.00400827
-0.000586961
0.00405111
-0.000434549
0.00407397
-0.00031142
0.00408297
-0.000215017
0.00408281
-0.000141482
0.00407698
-8.70526e-05
0.00406799
-4.78542e-05
0.00405763
-2.05598e-05
0.00404696
-2.50369e-06
0.0040367
8.70157e-06
0.00402726
1.49131e-05
0.00401893
1.77166e-05
0.00401179
1.8267e-05
0.0040058
1.73956e-05
0.00400088
1.56984e-05
0.00399688
1.3632e-05
0.00399372
1.13953e-05
0.0039912
9.4129e-06
6.94509e-06
0.00320602
-1.98969e-05
0.0032242
-6.03529e-05
0.00325277
-9.65589e-05
0.00328904
-0.000125383
0.00333038
-0.000146042
0.00337456
-0.000158885
0.00341966
-0.000164481
0.00346402
-0.000163396
0.0035062
-0.000156147
0.00354509
-0.000143298
0.00357978
-0.000125214
0.00360939
-0.000101767
0.00363294
-7.25198e-05
0.00364942
-3.66774e-05
0.00365778
6.8469e-06
0.00365678
5.97621e-05
0.00364493
0.00012453
0.00362045
0.000204335
0.0035813
0.000303336
0.00352514
0.000427045
0.00344945
0.000582803
0.00335167
0.000780466
0.00322968
0.00103337
0.0030828
0.00135965
0.0029135
0.00178431
0.00273002
0.00234178
0.00254579
0.00307748
0.00228766
0.00402664
0.00145781
0.00493294
-0.000149567
0.00432276
1.43893e-18
0.000827677
2.24821e-19
7.44797e-19
1.8764e-19
2.69534e-19
6.75672e-21
6.39492e-20
1.1853e-21
4.55162e-20
2.82852e-24
9.98895e-21
-4.73157e-20
-9.87167e-21
-2.34407e-19
1.33006e-18
9.1596e-19
2.75636e-18
-0.00208967
-0.000182519
-0.00152876
-0.000272583
-0.00075053
-0.000670098
5.74116e-05
-0.00117606
0.000833025
-0.00167229
0.00154389
-0.00208116
0.00217086
-0.00237057
0.00270507
-0.00252268
0.00314652
-0.00255192
0.00350786
-0.00248334
0.00379298
-0.00232622
0.00400733
-0.00210358
0.0041578
-0.0018379
0.00425288
-0.00155116
0.0043022
-0.00126417