/*--------------------------------*- C++ -*----------------------------------*\
| =========                 |                                                 |
| \\      /  F ield         | OpenFOAM: The Open Source CFD Toolbox           |
|  \\    /   O peration     | Version:  2206                                  |
|   \\  /    A nd           | Website:  www.openfoam.com                      |
|    \\/     M anipulation  |                                                 |
\*---------------------------------------------------------------------------*/
FoamFile
{
    version     2.0;
    format      ascii;
    arch        "LSB;label=32;scalar=64";
    class       surfaceVectorField;
    location    "0.9";
    object      Uf;
}
// * * * * * * * * * * * * * * * * * * * * * * * * * * * * * * * * * * * * * //

dimensions      [0 1 -1 0 0 0 0];

internalField   nonuniform List<vector> 
3650
(
(0.85997 0.0531621 0)
(0.903252 0.14003 0)
(0.701941 0.0844871 0)
(0.90062 0.158028 0)
(0.568318 0.0659834 0)
(0.843914 0.133624 0)
(0.465274 0.0365294 0)
(0.753503 0.103044 0)
(0.389736 0.0187818 0)
(0.673979 0.0755379 0)
(0.336447 0.0100521 0)
(0.609337 0.0532891 0)
(0.299236 0.00525735 0)
(0.557794 0.0372108 0)
(0.27341 0.00255154 0)
(0.516499 0.0258266 0)
(0.255424 0.00104865 0)
(0.484234 0.0179853 0)
(0.242917 0.000171333 0)
(0.459477 0.0125078 0)
(0.234502 -0.000420806 0)
(0.440857 0.00841463 0)
(0.229373 -0.00090756 0)
(0.427375 0.0051287 0)
(0.227122 -0.00138785 0)
(0.418341 0.00225115 0)
(0.227637 -0.0019685 0)
(0.413514 -0.000514982 0)
(0.230874 -0.00269811 0)
(0.412757 -0.00323637 0)
(0.237169 -0.00357685 0)
(0.416106 -0.00629615 0)
(0.247021 -0.00465446 0)
(0.424117 -0.00985097 0)
(0.261075 -0.00600064 0)
(0.437412 -0.0140545 0)
(0.280185 -0.0076956 0)
(0.456803 -0.0191102 0)
(0.30544 -0.00982018 0)
(0.483391 -0.0252553 0)
(0.338182 -0.0124575 0)
(0.518571 -0.0327422 0)
(0.380003 -0.0156825 0)
(0.564016 -0.0418209 0)
(0.432707 -0.0195426 0)
(0.621658 -0.0527043 0)
(0.498219 -0.024022 0)
(0.693621 -0.0655124 0)
(0.578393 -0.0289898 0)
(0.782078 -0.0801727 0)
(0.674681 -0.0341258 0)
(0.889004 -0.0962889 0)
(0.78764 -0.038832 0)
(1.01579 -0.112958 0)
(0.91622 -0.0421531 0)
(1.16262 -0.128581 0)
(1.05691 -0.0432004 0)
(1.32776 -0.140688 0)
(1.2034 -0.0403147 0)
(1.5066 -0.14649 0)
(1.34533 -0.0303431 0)
(1.69094 -0.141933 0)
(1.46777 -0.0132592 0)
(1.86947 -0.122445 0)
(1.555 0.00802438 0)
(2.02566 -0.0872212 0)
(1.59311 0.030122 0)
(2.14213 -0.0381171 0)
(1.57562 0.0525344 0)
(2.20176 0.0174889 0)
(1.50291 0.0710367 0)
(2.20096 0.0727106 0)
(1.38358 0.081379 0)
(2.14038 0.119329 0)
(1.22897 0.0837509 0)
(2.02709 0.154608 0)
(1.05478 0.0773839 0)
(1.87297 0.174196 0)
(0.876809 0.0642694 0)
(1.69205 0.177969 0)
(0.709215 0.0462925 0)
(1.49691 0.167595 0)
(0.561974 0.0275059 0)
(1.3 0.14724 0)
(0.438908 0.0137818 0)
(1.10844 0.123066 0)
(0.338417 0.00635776 0)
(0.92736 0.100491 0)
(0.25779 0.00280606 0)
(0.763927 0.0806273 0)
(0.194414 0.00116741 0)
(0.622317 0.0633754 0)
(0.146029 0.000340012 0)
(0.504883 0.0483862 0)
(0.110525 -0.000208909 0)
(0.410461 0.0355037 0)
(0.0858806 -0.000769102 0)
(0.337627 0.0246446 0)
(0.0703391 -0.00138098 0)
(0.284049 0.0155413 0)
(0.0623856 -0.00192378 0)
(0.247047 0.00795389 0)
(0.0604807 -0.00219172 0)
(0.223336 0.00190467 0)
(0.0628967 -0.00228145 0)
(0.210462 -0.00241563 0)
(0.0685547 -0.00237578 0)
(0.206327 -0.00565827 0)
(0.0766025 -0.00236803 0)
(0.208565 -0.00804742 0)
(0.0861751 -0.00229585 0)
(0.215116 -0.00957287 0)
(0.0963675 -0.00219806 0)
(0.224608 -0.0101919 0)
(0.106603 -0.00203738 0)
(0.23549 -0.010236 0)
(0.116414 -0.00184891 0)
(0.246934 -0.00981047 0)
(0.125466 -0.00166202 0)
(0.258207 -0.0090519 0)
(0.133544 -0.00154101 0)
(0.268742 -0.00807839 0)
(0.140599 -0.00150313 0)
(0.278252 -0.00705462 0)
(0.146651 -0.00142747 0)
(0.286613 -0.00605201 0)
(0.151723 -0.00122703 0)
(0.2938 -0.0050724 0)
(0.155888 -0.000985916 0)
(0.299885 -0.00416479 0)
(0.159262 -0.000779181 0)
(0.304789 -0.00337358 0)
(0.161961 -0.000611665 0)
(0.308851 -0.00269875 0)
(0.164106 -0.000478392 0)
(0.312153 -0.0021449 0)
(0.16579 -0.000369239 0)
(0.314757 -0.00168463 0)
(0.167099 -0.000281174 0)
(0.316804 -0.00130827 0)
(0.168104 -0.000212016 0)
(0.318399 -0.0010057 0)
(0.16887 -0.000158052 0)
(0.319626 -0.000765339 0)
(0.169446 -0.000114592 0)
(0.320561 -0.000575918 0)
(0.169871 -9.52093e-05 0)
(0.321261 -0.000425595 0)
(0.321887 -0.000329176 0)
(1.05184 0.154496 0)
(1.0133 0.0881926 0)
(1.0479 0.182553 0)
(1.0557 0.161967 0)
(1.01157 0.167568 0)
(1.06809 0.169953 0)
(0.957076 0.142619 0)
(1.05046 0.157539 0)
(0.89348 0.112398 0)
(1.01587 0.139134 0)
(0.830236 0.0835019 0)
(0.97411 0.116533 0)
(0.77391 0.0605739 0)
(0.93161 0.093537 0)
(0.726523 0.0436302 0)
(0.890208 0.0732137 0)
(0.687842 0.031272 0)
(0.852399 0.0566662 0)
(0.6571 0.0220051 0)
(0.819828 0.0432497 0)
(0.633482 0.0147167 0)
(0.792856 0.0320328 0)
(0.616132 0.0086105 0)
(0.771403 0.022479 0)
(0.604479 0.00308014 0)
(0.755192 0.0139037 0)
(0.598291 -0.00221725 0)
(0.744159 0.00567327 0)
(0.597596 -0.00770261 0)
(0.738508 -0.00254168 0)
(0.602603 -0.0138554 0)
(0.738356 -0.0113037 0)
(0.613947 -0.0209601 0)
(0.744315 -0.0211945 0)
(0.632409 -0.0293231 0)
(0.757059 -0.0325161 0)
(0.659078 -0.0393145 0)
(0.777482 -0.0457799 0)
(0.695355 -0.0513358 0)
(0.806795 -0.0615319 0)
(0.742963 -0.0657908 0)
(0.846514 -0.0803499 0)
(0.803924 -0.0830388 0)
(0.898475 -0.102783 0)
(0.880514 -0.103324 0)
(0.964824 -0.129294 0)
(0.975155 -0.126658 0)
(1.04796 -0.160153 0)
(1.09023 -0.152647 0)
(1.15046 -0.195244 0)
(1.22776 -0.180262 0)
(1.27487 -0.233825 0)
(1.38897 -0.207562 0)
(1.42338 -0.274162 0)
(1.57352 -0.231427 0)
(1.59734 -0.313133 0)
(1.77867 -0.24752 0)
(1.79638 -0.345836 0)
(1.99811 -0.250622 0)
(2.0174 -0.36593 0)
(2.22172 -0.235065 0)
(2.25343 -0.36555 0)
(2.43529 -0.196164 0)
(2.49296 -0.336013 0)
(2.62028 -0.132782 0)
(2.71859 -0.272215 0)
(2.75794 -0.0496759 0)
(2.90657 -0.17577 0)
(2.83156 0.0400866 0)
(3.03724 -0.0561359 0)
(2.83786 0.124243 0)
(3.09778 0.0664136 0)
(2.7803 0.196939 0)
(3.09235 0.176883 0)
(2.66676 0.251676 0)
(3.02653 0.268153 0)
(2.50626 0.283403 0)
(2.90977 0.334692 0)
(2.3094 0.293455 0)
(2.75478 0.374829 0)
(2.08525 0.285795 0)
(2.57061 0.391745 0)
(1.84286 0.264105 0)
(2.3616 0.389629 0)
(1.59367 0.232941 0)
(2.13306 0.37226 0)
(1.35121 0.196746 0)
(1.89447 0.342955 0)
(1.12779 0.159215 0)
(1.65717 0.304042 0)
(0.932423 0.123584 0)
(1.43076 0.258746 0)
(0.769076 0.0921664 0)
(1.22289 0.211733 0)
(0.637517 0.0657051 0)
(1.03983 0.167063 0)
(0.535842 0.0439767 0)
(0.885406 0.12632 0)
(0.460691 0.0264253 0)
(0.761231 0.0906922 0)
(0.407888 0.0125019 0)
(0.666164 0.0607566 0)
(0.37341 0.00186314 0)
(0.596515 0.0363827 0)
(0.353958 -0.0060098 0)
(0.548726 0.017037 0)
(0.346326 -0.011724 0)
(0.519134 0.00197286 0)
(0.347109 -0.0156304 0)
(0.503322 -0.00882982 0)
(0.353674 -0.0177934 0)
(0.497408 -0.016138 0)
(0.363907 -0.0185154 0)
(0.499068 -0.0204243 0)
(0.376006 -0.018227 0)
(0.505171 -0.0223358 0)
(0.38896 -0.0171532 0)
(0.51417 -0.0227645 0)
(0.401722 -0.0155826 0)
(0.524608 -0.0218131 0)
(0.413668 -0.0137429 0)
(0.535182 -0.0200249 0)
(0.424474 -0.0118272 0)
(0.545404 -0.0178608 0)
(0.433943 -0.00996948 0)
(0.554843 -0.0155205 0)
(0.442065 -0.00826478 0)
(0.563219 -0.0131945 0)
(0.448899 -0.00675688 0)
(0.570485 -0.010998 0)
(0.454552 -0.00545757 0)
(0.576631 -0.00902674 0)
(0.459168 -0.00436263 0)
(0.581756 -0.00731506 0)
(0.462881 -0.00345208 0)
(0.585963 -0.00585757 0)
(0.465833 -0.00270069 0)
(0.589355 -0.00463691 0)
(0.468154 -0.00209048 0)
(0.592061 -0.00362962 0)
(0.46996 -0.00160128 0)
(0.594196 -0.00281107 0)
(0.471348 -0.00121276 0)
(0.595858 -0.00215345 0)
(0.4724 -0.000906048 0)
(0.597144 -0.00162779 0)
(0.473191 -0.000666016 0)
(0.598094 -0.00121645 0)
(0.598984 -0.000862576 0)
(1.03956 0.110499 0)
(1.0091 0.0486343 0)
(1.0823 0.156381 0)
(1.04749 0.119226 0)
(1.10379 0.16377 0)
(1.08798 0.148458 0)
(1.10708 0.157712 0)
(1.11156 0.154248 0)
(1.09647 0.145664 0)
(1.11857 0.149748 0)
(1.07533 0.127971 0)
(1.11695 0.137678 0)
(1.04726 0.10716 0)
(1.10566 0.121607 0)
(1.01558 0.086767 0)
(1.0884 0.104889 0)
(0.984028 0.0687245 0)
(1.06786 0.0882196 0)
(0.955286 0.0531969 0)
(1.04679 0.0719923 0)
(0.930567 0.0397319 0)
(1.02671 0.0567516 0)
(0.910266 0.0276935 0)
(1.0088 0.0427801 0)
(0.894656 0.0163488 0)
(0.993734 0.0295134 0)
(0.884053 0.00512423 0)
(0.982127 0.0162766 0)
(0.878913 -0.00645884 0)
(0.974684 0.0025982 0)
(0.879687 -0.0190801 0)
(0.971959 -0.0120778 0)
(0.886944 -0.0333387 0)
(0.974623 -0.0284513 0)
(0.901489 -0.049732 0)
(0.983359 -0.0470613 0)
(0.924384 -0.0689348 0)
(0.999059 -0.0686742 0)
(0.956923 -0.0916632 0)
(1.02295 -0.0940712 0)
(1.00074 -0.118638 0)
(1.05629 -0.124166 0)
(1.0578 -0.150524 0)
(1.10095 -0.159841 0)
(1.13039 -0.18782 0)
(1.1591 -0.201885 0)
(1.2211 -0.230673 0)
(1.23334 -0.250868 0)
(1.33274 -0.278603 0)
(1.32667 -0.306882 8.76106e-34)
(1.46814 -0.330136 0)
(1.44249 -0.369229 -8.43285e-34)
(1.62982 -0.382325 0)
(1.58442 -0.435841 0)
(1.81929 -0.430187 0)
(1.75597 -0.502598 0)
(2.03602 -0.466695 0)
(1.95956 -0.562569 0)
(2.2764 -0.482652 0)
(2.19584 -0.606309 0)
(2.53117 -0.467183 0)
(2.46193 -0.620321 0)
(2.78425 -0.411036 0)
(2.74009 -0.589094 0)
(3.01347 -0.312371 0)
(3.00411 -0.501431 0)
(3.19294 -0.178839 0)
(3.22023 -0.355244 0)
(3.30585 -0.0276838 0)
(3.3675 -0.169049 0)
(3.35132 0.118448 0)
(3.44941 0.0209477 0)
(3.33348 0.24535 0)
(3.44975 0.194723 0)
(3.26386 0.347882 0)
(3.40262 0.337775 0)
(3.1545 0.422351 0)
(3.31189 0.444049 0)
(3.01418 0.469296 0)
(3.19371 0.515148 0)
(2.84523 0.492498 0)
(3.0548 0.560701 0)
(2.6497 0.495079 0)
(2.8956 0.585151 0)
(2.43216 0.479617 0)
(2.71581 0.589803 0)
(2.19962 0.448421 0)
(2.51853 0.575498 0)
(1.9598 0.403939 0)
(2.30817 0.543864 0)
(1.72121 0.349493 0)
(2.09033 0.497334 0)
(1.49382 0.289741 0)
(1.87091 0.439123 0)
(1.28788 0.229589 0)
(1.65881 0.373006 0)
(1.11104 0.173168 0)
(1.46121 0.303154 0)
(0.966738 0.123521 0)
(1.28665 0.234996 0)
(0.854711 0.0820328 0)
(1.1397 0.172783 0)
(0.771883 0.0485654 0)
(1.02162 0.119211 0)
(0.713947 0.0223643 0)
(0.931218 0.0749731 0)
(0.675991 0.00266766 0)
(0.86538 0.0399293 0)
(0.653632 -0.0113239 0)
(0.819852 0.0135287 0)
(0.642894 -0.0204702 0)
(0.790403 -0.00539969 0)
(0.640453 -0.0255746 0)
(0.77345 -0.0179834 0)
(0.643488 -0.0278965 0)
(0.765404 -0.0253702 0)
(0.650041 -0.0282289 0)
(0.763597 -0.0293179 0)
(0.658274 -0.0268682 0)
(0.765704 -0.0300459 0)
(0.667109 -0.0245586 0)
(0.770262 -0.0288597 0)
(0.675978 -0.0217842 0)
(0.775945 -0.0267299 0)
(0.68429 -0.0188414 0)
(0.782113 -0.0238323 0)
(0.691784 -0.0159586 0)
(0.788202 -0.0206884 0)
(0.698345 -0.0132756 0)
(0.793903 -0.0175592 0)
(0.703951 -0.0108776 0)
(0.799018 -0.0146331 0)
(0.708645 -0.00879595 0)
(0.803463 -0.0120086 0)
(0.712507 -0.00702671 0)
(0.807235 -0.00971976 0)
(0.715639 -0.00554918 0)
(0.810372 -0.00776917 0)
(0.718147 -0.00433437 0)
(0.81294 -0.00613753 0)
(0.72013 -0.00334881 0)
(0.815013 -0.00479346 0)
(0.721678 -0.00255582 0)
(0.816657 -0.00370206 0)
(0.722867 -0.00192824 0)
(0.817961 -0.00281678 0)
(0.723785 -0.00140486 0)
(0.818922 -0.00213384 0)
(0.819882 -0.00148293 0)
(1.01976 0.0657295 0)
(1.00422 0.0288784 0)
(1.05964 0.11182 0)
(1.02719 0.0793434 0)
(1.09624 0.136528 0)
(1.06438 0.111857 0)
(1.12234 0.144223 0)
(1.09818 0.128147 0)
(1.13909 0.140997 0)
(1.12253 0.133002 0)
(1.14704 0.131543 0)
(1.1409 0.129727 0)
(1.1468 0.119677 0)
(1.15063 0.121845 0)
(1.14036 0.106616 0)
(1.15442 0.11133 0)
(1.1302 0.0919766 0)
(1.15419 0.0983766 0)
(1.11804 0.0760975 0)
(1.15019 0.0841555 0)
(1.10485 0.060172 0)
(1.14379 0.0699388 0)
(1.0921 0.0448091 0)
(1.13657 0.0555353 0)
(1.081 0.0295977 0)
(1.12932 0.0406104 0)
(1.07248 0.0139506 0)
(1.12304 0.0247962 0)
(1.06743 -0.00270931 0)
(1.11863 0.00765346 0)
(1.0666 -0.0209927 0)
(1.11686 -0.0112501 0)
(1.07065 -0.0415653 0)
(1.11845 -0.0324983 0)
(1.08038 -0.0652418 0)
(1.12407 -0.0567915 0)
(1.09691 -0.0929257 0)
(1.13453 -0.0852128 0)
(1.1214 -0.125609 0)
(1.15122 -0.118557 0)
(1.15531 -0.164321 0)
(1.17496 -0.158071 0)
(1.20072 -0.210093 0)
(1.208 -0.205259 0)
(1.26013 -0.263861 0)
(1.25245 -0.261295 0)
(1.33657 -0.326182 8.76106e-34)
(1.31121 -0.327305 0)
(1.43372 -0.396968 3.56055e-35)
(1.388 -0.404034 8.76106e-34)
(1.55591 -0.474948 -8.43285e-34)
(1.48756 -0.491413 -8.43285e-34)
(1.70792 -0.556789 0)
(1.61569 -0.587849 0)
(1.89453 -0.636168 0)
(1.77924 -0.689217 0)
(2.11961 -0.703172 0)
(1.98561 -0.787649 0)
(2.38506 -0.742743 0)
(2.24282 -0.87176 0)
(2.6789 -0.736477 0)
(2.54706 -0.914163 0)
(2.97024 -0.667792 0)
(2.85027 -0.880432 0)
(3.22198 -0.528363 0)
(3.11354 -0.753163 0)
(3.40428 -0.332276 0)
(3.31929 -0.53755 0)
(3.51185 -0.113034 0)
(3.42373 -0.276615 0)
(3.54379 0.101602 0)
(3.46515 -0.0109972 0)
(3.5129 0.287606 0)
(3.43384 0.225613 0)
(3.44193 0.430174 0)
(3.37114 0.408748 0)
(3.34625 0.532175 0)
(3.28593 0.539729 0)
(3.2331 0.602928 0)
(3.19428 0.628295 0)
(3.10448 0.650825 0)
(3.09604 0.689322 0)
(2.96058 0.678468 0)
(2.98511 0.729052 0)
(2.80102 0.685571 0)
(2.86433 0.74936 0)
(2.62637 0.671658 0)
(2.72953 0.750149 0)
(2.43814 0.638195 0)
(2.57603 0.732094 0)
(2.24023 0.587796 0)
(2.40921 0.695244 0)
(2.03623 0.523372 0)
(2.23293 0.643122 0)
(1.83237 0.447899 0)
(2.05183 0.576872 0)
(1.63731 0.366358 0)
(1.87061 0.498207 0)
(1.45996 0.285437 0)
(1.69727 0.412349 0)
(1.30682 0.210814 0)
(1.53771 0.325926 0)
(1.18107 0.146032 0)
(1.39765 0.244955 0)
(1.0827 0.0925702 0)
(1.2801 0.173351 0)
(1.00913 0.050556 0)
(1.1858 0.113493 0)
(0.956624 0.0191145 0)
(1.11317 0.0660367 0)
(0.921002 -0.00321492 0)
(1.0594 0.0302225 0)
(0.898442 -0.018002 0)
(1.02114 0.00457683 0)
(0.885646 -0.0269031 0)
(0.995231 -0.0125741 0)
(0.879453 -0.0311569 0)
(0.978559 -0.023125 0)
(0.877847 -0.0320063 0)
(0.96856 -0.0284396 0)
(0.879239 -0.030963 0)
(0.963701 -0.0302517 0)
(0.882255 -0.0286904 0)
(0.961769 -0.0297462 0)
(0.886159 -0.0255899 0)
(0.962007 -0.0277365 0)
(0.890444 -0.0222047 0)
(0.963525 -0.024973 0)
(0.894681 -0.0188405 0)
(0.965723 -0.021796 0)
(0.898619 -0.0156968 0)
(0.968231 -0.0185712 0)
(0.902126 -0.012876 0)
(0.970766 -0.015516 0)
(0.905158 -0.0104159 0)
(0.973153 -0.0127513 0)
(0.90772 -0.00831913 0)
(0.975294 -0.0103308 0)
(0.909842 -0.00656515 0)
(0.977153 -0.00826018 0)
(0.91157 -0.00512156 0)
(0.978725 -0.00652155 0)
(0.912957 -0.00394344 0)
(0.980023 -0.00508907 0)
(0.914047 -0.00300841 0)
(0.981091 -0.00390635 0)
(0.914914 -0.00220348 0)
(0.981892 -0.00300033 0)
(0.982739 -0.00208616 0)
(1.01046 0.0432225 0)
(1.00232 0.0184202 0)
(1.03623 0.0785398 0)
(1.01547 0.053576 0)
(1.0677 0.102658 0)
(1.04085 0.0803876 0)
(1.09818 0.116215 0)
(1.07025 0.0976607 0)
(1.12426 0.121002 0)
(1.0976 0.106924 0)
(1.14433 0.119381 0)
(1.12139 0.109652 0)
(1.15855 0.113346 0)
(1.14067 0.107627 0)
(1.16805 0.103493 0)
(1.15553 0.101836 0)
(1.17372 0.0911977 0)
(1.16706 0.0927074 0)
(1.17594 0.0786619 0)
(1.17457 0.0819301 0)
(1.17553 0.0659295 0)
(1.17908 0.0703454 0)
(1.17362 0.0520656 0)
(1.18179 0.0574463 0)
(1.17114 0.0367456 0)
(1.18306 0.0430952 0)
(1.16896 0.0195579 0)
(1.18382 0.0269732 0)
(1.16786 0.000116137 0)
(1.18428 0.00875304 0)
(1.1685 -0.0218093 0)
(1.18519 -0.0118852 0)
(1.17155 -0.0467568 0)
(1.18717 -0.0355461 0)
(1.17776 -0.0757516 0)
(1.19084 -0.0630106 0)
(1.18815 -0.109685 0)
(1.19683 -0.0955984 0)
(1.20389 -0.149685 0)
(1.20649 -0.134299 0)
(1.22651 -0.197674 0)
(1.22064 -0.180693 0)
(1.25812 -0.255296 0)
(1.24137 -0.23687 0)
(1.30138 -0.32388 0)
(1.27068 -0.304554 0)
(1.35988 -0.40482 0)
(1.31165 -0.385799 0)
(1.43844 -0.498961 0)
(1.36864 -0.482596 0)
(1.54344 -0.605914 0)
(1.44773 -0.59641 0)
(1.68295 -0.723139 0)
(1.55731 -0.727365 0)
(1.86695 -0.844492 0)
(1.70866 -0.873215 0)
(2.107 -0.958901 0)
(1.91751 -1.0277 0)
(2.40941 -1.04447 0)
(2.1939 -1.17417 0)
(2.72927 -1.06351 0)
(2.50476 -1.23403 0)
(3.01176 -0.984067 0)
(2.75108 -1.16291 0)
(3.22877 -0.788699 0)
(2.92147 -0.970171 0)
(3.34681 -0.502474 0)
(2.96383 -0.655588 0)
(3.37538 -0.19307 0)
(2.90307 -0.305194 0)
(3.34729 0.0900229 0)
(2.82069 0.017102 0)
(3.28242 0.323953 0)
(2.76094 0.290476 0)
(3.20192 0.498348 0)
(2.72377 0.489254 0)
(3.1284 0.618747 0)
(2.69453 0.613248 0)
(3.05693 0.701586 0)
(2.68801 0.699759 0)
(2.9777 0.757708 0)
(2.69079 0.768556 0)
(2.88914 0.791696 0)
(2.67904 0.817607 0)
(2.79124 0.808052 0)
(2.64553 0.84726 0)
(2.67844 0.807384 0)
(2.59093 0.862954 0)
(2.54662 0.787045 0)
(2.51112 0.863919 0)
(2.40238 0.749231 0)
(2.41086 0.839476 0)
(2.24852 0.696695 0)
(2.29283 0.796985 0)
(2.08995 0.628688 0)
(2.16688 0.735443 0)
(1.93108 0.546613 0)
(2.0313 0.657076 0)
(1.77581 0.455457 0)
(1.89339 0.567624 0)
(1.62915 0.362281 0)
(1.75866 0.472582 0)
(1.497 0.273987 0)
(1.63222 0.377108 0)
(1.3834 0.195548 0)
(1.51813 0.286946 0)
(1.28993 0.129884 0)
(1.41929 0.206964 0)
(1.21598 0.0777745 0)
(1.33672 0.139987 0)
(1.15955 0.0384305 0)
(1.26997 0.0866483 0)
(1.11793 0.0102611 0)
(1.21765 0.0462006 0)
(1.08826 -0.00867802 0)
(1.17784 0.0170924 0)
(1.0678 -0.0203631 0)
(1.14831 -0.00265629 0)
(1.05451 -0.0266397 0)
(1.12703 -0.0151526 0)
(1.04635 -0.0290082 0)
(1.11229 -0.022089 0)
(1.04166 -0.0288035 0)
(1.10227 -0.0250648 0)
(1.03947 -0.0271371 0)
(1.09588 -0.0255398 0)
(1.03889 -0.0245678 0)
(1.09202 -0.024399 0)
(1.03936 -0.0215237 0)
(1.08992 -0.0222572 0)
(1.04045 -0.0183919 0)
(1.08904 -0.0196653 0)
(1.04185 -0.0153977 0)
(1.08896 -0.0169183 0)
(1.04334 -0.0126748 0)
(1.08937 -0.0142351 0)
(1.04476 -0.0102809 0)
(1.09002 -0.0117593 0)
(1.04606 -0.00822527 0)
(1.09078 -0.00956079 0)
(1.0472 -0.00649684 0)
(1.09155 -0.00765905 0)
(1.04817 -0.00505887 0)
(1.09226 -0.00605637 0)
(1.04897 -0.00390449 0)
(1.0929 -0.00470314 0)
(1.04962 -0.00288788 0)
(1.09341 -0.00365883 0)
(1.09397 -0.00256111 0)
(1.00595 0.0296334 0)
(1.00138 0.012473 0)
(1.02223 0.0556282 0)
(1.00941 0.0372922 0)
(1.04477 0.0752712 0)
(1.02627 0.0578465 0)
(1.06982 0.0882857 0)
(1.04801 0.0726165 0)
(1.09475 0.0954814 0)
(1.071 0.0819921 0)
(1.11769 0.0977974 0)
(1.09342 0.0867107 0)
(1.13776 0.0960458 0)
(1.11427 0.0875536 0)
(1.15455 0.0909106 0)
(1.13293 0.0850544 0)
(1.16767 0.0831471 0)
(1.14891 0.0795789 0)
(1.17769 0.0734795 0)
(1.16197 0.071918 0)
(1.18535 0.0621587 0)
(1.17252 0.0626786 0)
(1.19114 0.0490136 0)
(1.18111 0.0516633 0)
(1.19558 0.0338966 0)
(1.18787 0.0386478 0)
(1.19898 0.0168009 0)
(1.19326 0.0235784 0)
(1.2015 -0.002514 0)
(1.19722 0.00622923 0)
(1.20371 -0.024697 0)
(1.20002 -0.0140924 0)
(1.20618 -0.0506043 0)
(1.20213 -0.038011 0)
(1.20955 -0.0814633 0)
(1.20405 -0.0663877 0)
(1.21455 -0.118746 0)
(1.20618 -0.100592 0)
(1.22237 -0.163821 0)
(1.20933 -0.14212 0)
(1.23438 -0.21837 0)
(1.21431 -0.192708 0)
(1.25223 -0.284631 0)
(1.22244 -0.254718 0)
(1.27853 -0.365134 0)
(1.23556 -0.330857 0)
(1.3171 -0.4626 0)
(1.25656 -0.424365 0)
(1.37351 -0.579747 0)
(1.28988 -0.539011 0)
(1.45598 -0.718703 0)
(1.34238 -0.678875 0)
(1.57635 -0.880021 0)
(1.42453 -0.847737 0)
(1.75142 -1.06119 0)
(1.55195 -1.04828 0)
(2.00123 -1.25292 0)
(1.74562 -1.27751 0)
(2.29858 -1.38799 0)
(1.99911 -1.47152 0)
(2.54284 -1.3864 0)
(2.18652 -1.47829 0)
(2.68171 -1.25164 0)
(2.10178 -1.30178 0)
(2.69616 -0.968881 0)
(1.8732 -0.984616 -2.16269e-18)
(2.53204 -0.569638 0)
(1.56308 -0.491472 1.14285e-16)
(2.33221 -0.165714 0)
(1.18225 -0.105365 0)
(2.22035 0.173758 0)
(1.12651 0.128965 0)
(2.18526 0.41627 0)
(1.19931 0.325567 0)
(2.1925 0.567887 0)
(1.26689 0.482007 -1.40584e-16)
(2.24952 0.665842 0)
(1.35683 0.556233 0)
(2.32596 0.744076 0)
(1.54514 0.623314 0)
(2.39462 0.810026 0)
(1.74419 0.699898 0)
(2.43676 0.859917 0)
(1.91347 0.775473 0)
(2.44483 0.891965 0)
(2.03248 0.839186 0)
(2.42238 0.911394 0)
(2.10506 0.885402 0)
(2.37388 0.911788 0)
(2.13639 0.912417 0)
(2.30192 0.885057 0)
(2.13335 0.91144 0)
(2.21142 0.834045 0)
(2.09731 0.887489 0)
(2.10738 0.763205 0)
(2.04444 0.839481 0)
(1.99404 0.67901 0)
(1.97135 0.770418 0)
(1.87732 0.586496 0)
(1.88606 0.684341 0)
(1.76268 0.489585 0)
(1.79503 0.587221 0)
(1.65397 0.392451 0)
(1.7031 0.485822 0)
(1.55453 0.300708 0)
(1.61415 0.386382 0)
(1.46647 0.219085 0)
(1.5319 0.295029 0)
(1.39088 0.150412 0)
(1.45874 0.215568 0)
(1.32813 0.0955475 0)
(1.39558 0.1494 0)
(1.27759 0.0538414 0)
(1.34246 0.096741 0)
(1.23797 0.0236663 0)
(1.29888 0.0567197 0)
(1.20762 0.00296583 0)
(1.26393 0.027693 0)
(1.18487 -0.010293 0)
(1.23646 0.00759243 0)
(1.16829 -0.0179553 0)
(1.21535 -0.0055093 0)
(1.15658 -0.0216723 0)
(1.19953 -0.0133509 0)
(1.1485 -0.0227372 0)
(1.18795 -0.0174624 0)
(1.1431 -0.0220748 0)
(1.17965 -0.0189984 0)
(1.13966 -0.0203977 0)
(1.17385 -0.0188191 0)
(1.13761 -0.0181859 0)
(1.16992 -0.0176121 0)
(1.13652 -0.0157487 0)
(1.16734 -0.0158315 0)
(1.13609 -0.013318 0)
(1.16574 -0.0138033 0)
(1.13607 -0.0110436 0)
(1.16483 -0.0117422 0)
(1.13629 -0.00900241 0)
(1.16438 -0.00978112 0)
(1.13663 -0.00722739 0)
(1.16422 -0.00799402 0)
(1.137 -0.0057088 0)
(1.16423 -0.00642975 0)
(1.13736 -0.00446281 0)
(1.16433 -0.00506506 0)
(1.13769 -0.003335 0)
(1.16447 -0.00398709 0)
(1.16466 -0.00281663 0)
(1.00371 0.0208293 0)
(1.0009 0.00876703 0)
(1.01452 0.0398555 0)
(1.00622 0.0264817 0)
(1.0305 0.055167 0)
(1.01789 0.0418647 0)
(1.04949 0.0661612 0)
(1.03378 0.0536289 0)
(1.06977 0.0730593 0)
(1.0517 0.0617097 0)
(1.09006 0.0763282 0)
(1.07031 0.0664198 0)
(1.10949 0.076431 0)
(1.08878 0.0681234 0)
(1.12739 0.0737204 0)
(1.10647 0.0671563 0)
(1.14318 0.0685803 0)
(1.12278 0.063791 0)
(1.15673 0.061413 0)
(1.1373 0.0583678 0)
(1.16826 0.0523826 0)
(1.14995 0.0511448 0)
(1.17786 0.0414301 0)
(1.1608 0.0420697 0)
(1.18552 0.0284368 0)
(1.16977 0.0309821 0)
(1.1914 0.0131523 0)
(1.17678 0.0177004 0)
(1.19564 -0.00501538 0)
(1.18196 0.0019856 0)
(1.19835 -0.0268083 0)
(1.18515 -0.0167965 0)
(1.19981 -0.052979 0)
(1.18649 -0.0394736 0)
(1.20044 -0.0845084 0)
(1.18609 -0.0670134 0)
(1.20052 -0.122741 0)
(1.18402 -0.100679 0)
(1.20052 -0.169532 0)
(1.18043 -0.142121 0)
(1.20128 -0.227256 0)
(1.17562 -0.193467 0)
(1.20406 -0.298795 0)
(1.17024 -0.257494 0)
(1.21097 -0.387694 0)
(1.16545 -0.337761 0)
(1.22545 -0.498356 0)
(1.16335 -0.438847 0)
(1.25308 -0.636101 0)
(1.16759 -0.566649 1.72336e-32)
(1.30287 -0.806993 0)
(1.18447 -0.728665 -1.66441e-32)
(1.3891 -1.01764 0)
(1.22436 -0.933965 0)
(1.53236 -1.27271 0)
(1.30302 -1.19154 0)
(1.74608 -1.51621 0)
(1.43882 -1.49123 0)
(1.90966 -1.60017 0)
(1.52883 -1.63509 0)
(1.78516 -1.40318 0)
(1.30725 -1.35379 0)
(1.27119 -0.956153 -2.16269e-18)
(0.694667 -0.730076 0)
(0.846726 -0.424672 1.12122e-16)
(0.513082 -0.86723 -2.16269e-18)
(0.258701 -0.101562 1.14285e-16)
(0.255141 -0.983242 1.14285e-16)
(-0.0271696 -0.0161 0)
(-0.0323474 -1.07282 0)
(0.0804255 0.108405 0)
(-0.0057308 -1.16192 0)
(0.219542 0.283286 -1.40584e-16)
(0.101829 -1.40169 0)
(0.359842 0.403827 -1.40584e-16)
(-0.124778 0.151594 -3.45804e-16)
(0.655004 0.483723 0)
(0.0304998 0.26107 0)
(0.976636 0.561397 0)
(0.257939 0.301681 0)
(1.26849 0.654407 0)
(0.558555 0.408044 0)
(1.51215 0.747123 0)
(0.863841 0.531815 0)
(1.69477 0.826374 0)
(1.12943 0.656559 0)
(1.81729 0.880872 0)
(1.34105 0.762888 0)
(1.89313 0.906958 0)
(1.49717 0.836572 0)
(1.92815 0.910088 0)
(1.60467 0.876423 0)
(1.9307 0.890603 0)
(1.66763 0.884939 0)
(1.90773 0.844067 0)
(1.70174 0.862455 0)
(1.86354 0.772897 0)
(1.70917 0.814604 0)
(1.8045 0.683668 0)
(1.69593 0.743379 0)
(1.73653 0.583866 0)
(1.66616 0.655197 0)
(1.66436 0.481188 0)
(1.62521 0.557992 0)
(1.59247 0.382381 0)
(1.5774 0.45827 0)
(1.52488 0.293157 0)
(1.52715 0.362616 0)
(1.46382 0.216139 0)
(1.47765 0.276626 0)
(1.41012 0.152023 0)
(1.43176 0.203103 0)
(1.36385 0.100799 0)
(1.39012 0.143007 0)
(1.3249 0.0616326 0)
(1.35346 0.0956729 0)
(1.29281 0.0329397 0)
(1.32209 0.0597787 0)
(1.26696 0.0128228 0)
(1.29585 0.033443 0)
(1.24661 -0.000571191 0)
(1.27439 0.0148476 0)
(1.23094 -0.00889655 0)
(1.25722 0.00231464 0)
(1.21914 -0.0135458 0)
(1.24376 -0.00565735 0)
(1.21042 -0.0156197 0)
(1.23343 -0.0102837 0)
(1.20413 -0.0159669 0)
(1.22565 -0.012527 0)
(1.19967 -0.0152321 0)
(1.21989 -0.0131551 0)
(1.19659 -0.0138783 0)
(1.2157 -0.0127463 0)
(1.19451 -0.0122227 0)
(1.2127 -0.0117256 0)
(1.19316 -0.0104752 0)
(1.21059 -0.0103908 0)
(1.19232 -0.00877029 0)
(1.20914 -0.00894151 0)
(1.19183 -0.00719679 0)
(1.20816 -0.00750295 0)
(1.19156 -0.00578882 0)
(1.20752 -0.00616749 0)
(1.19144 -0.00459399 0)
(1.2071 -0.00494524 0)
(1.19141 -0.00347493 0)
(1.20687 -0.0039508 0)
(1.20667 -0.00282779 0)
(1.00254 0.0148388 0)
(1.00064 0.00622368 0)
(1.01016 0.0287322 0)
(1.00444 0.0188636 0)
(1.02185 0.0403584 0)
(1.01296 0.0301775 0)
(1.03629 0.0490976 0)
(1.02493 0.0391847 0)
(1.05236 0.0549414 0)
(1.03894 0.0456404 0)
(1.06913 0.0580822 0)
(1.05403 0.049654 0)
(1.08585 0.0587466 0)
(1.06953 0.0514032 0)
(1.10194 0.0571555 0)
(1.08486 0.051065 0)
(1.11693 0.0535384 0)
(1.0995 0.0488006 0)
(1.13051 0.0480996 0)
(1.11306 0.0447865 0)
(1.14252 0.0408947 0)
(1.12525 0.0391363 0)
(1.15278 0.0318091 0)
(1.13588 0.0318105 0)
(1.16109 0.0206329 0)
(1.14473 0.0226719 0)
(1.16732 0.00709089 0)
(1.15156 0.0114725 0)
(1.17143 -0.00921076 0)
(1.15614 -0.00212757 0)
(1.1733 -0.0289044 0)
(1.15826 -0.0186628 0)
(1.17273 -0.0529126 0)
(1.15767 -0.0389027 0)
(1.16956 -0.082445 0)
(1.154 -0.0638422 0)
(1.16366 -0.119046 0)
(1.1469 -0.0947809 0)
(1.15498 -0.164687 0)
(1.13597 -0.133442 0)
(1.14363 -0.221959 0)
(1.12087 -0.182118 0)
(1.13003 -0.294305 0)
(1.10132 -0.243889 0)
(1.11519 -0.386304 0)
(1.07733 -0.322924 0)
(1.10123 -0.504083 1.72336e-32)
(1.04945 -0.42489 0)
(1.09219 -0.655827 6.98939e-34)
(1.01932 -0.557602 1.72336e-32)
(1.09533 -0.852356 -1.66441e-32)
(0.990646 -0.73181 -1.66441e-32)
(1.12312 -1.10659 0)
(0.969292 -0.961759 0)
(1.18992 -1.41082 0)
(0.970037 -1.25834 0)
(1.24018 -1.61789 0)
(0.95518 -1.54149 0)
(0.955943 -1.37601 0)
(0.684604 -1.35085 1.80504e-18)
(0.457982 -0.69927 0)
(0.153558 -0.647452 0)
(-0.164299 -0.155253 0)
(-0.0942893 -0.233315 0)
(0.00357745 0 0)
(0 -0.0842454 0)
(0.0404234 0 0)
(0 -0.0199748 0)
(0.00623457 0 0)
(0 -0.0142259 0)
(-0.0203324 0 0)
(0 -0.00312665 0)
(-0.0224064 0.0062079 -2.0522e-16)
(0 0.00312589 0)
(-0.44462 0.0590313 -2.0522e-16)
(-0.293433 -0.411448 -2.0522e-16)
(-0.399363 0.120884 0)
(-0.216146 -0.863771 0)
(-0.154787 0.187938 0)
(-0.478234 0.0571045 0)
(0.167787 0.308324 0)
(-0.293795 0.0854696 0)
(0.490022 0.451466 0)
(-0.0219584 0.209579 0)
(0.778878 0.595207 0)
(0.265449 0.367703 0)
(1.01913 0.716888 0)
(0.527869 0.522632 0)
(1.20539 0.80235 0)
(0.753223 0.650322 0)
(1.3411 0.847662 0)
(0.939224 0.740706 0)
(1.43783 0.854937 0)
(1.08531 0.788214 0)
(1.50293 0.833194 0)
(1.20029 0.797349 0)
(1.54162 0.786119 0)
(1.28709 0.775919 0)
(1.55816 0.7155 0)
(1.35049 0.726837 0)
(1.55607 0.62925 0)
(1.39193 0.657289 0)
(1.53977 0.534835 0)
(1.41482 0.574293 0)
(1.51332 0.438702 0)
(1.42245 0.48472 0)
(1.48088 0.346906 0)
(1.41831 0.395057 0)
(1.44627 0.264724 0)
(1.40568 0.311233 0)
(1.41215 0.19523 0)
(1.38841 0.237222 0)
(1.37995 0.138885 0)
(1.36857 0.175208 0)
(1.35073 0.0946322 0)
(1.3482 0.12489 0)
(1.32514 0.0609282 0)
(1.32864 0.0853749 0)
(1.30326 0.0359619 0)
(1.31073 0.0553202 0)
(1.28498 0.018094 0)
(1.29492 0.0331254 0)
(1.27003 0.00581678 0)
(1.28137 0.0172686 0)
(1.25805 -0.00220023 0)
(1.27003 0.0063206 0)
(1.24865 -0.00704792 0)
(1.26074 -0.000881977 0)
(1.24141 -0.00960946 0)
(1.2533 -0.0052891 0)
(1.23592 -0.0105934 0)
(1.24742 -0.00766634 0)
(1.23181 -0.0105444 0)
(1.24285 -0.0086404 0)
(1.22878 -0.0098658 0)
(1.23933 -0.00869409 0)
(1.22657 -0.00884212 0)
(1.23666 -0.00818155 0)
(1.22498 -0.00766538 0)
(1.23465 -0.00735268 0)
(1.22386 -0.00646817 0)
(1.23315 -0.00637578 0)
(1.22307 -0.00532112 0)
(1.23205 -0.00537829 0)
(1.22252 -0.00430194 0)
(1.23123 -0.00440105 0)
(1.22215 -0.00330594 0)
(1.23069 -0.00357803 0)
(1.23012 -0.00260111 0)
(1.00188 0.0105074 0)
(1.00049 0.00434246 0)
(1.00756 0.0204907 0)
(1.00338 0.0131829 0)
(1.01649 0.0290681 0)
(1.00994 0.021249 0)
(1.02782 0.0357156 0)
(1.01935 0.0278512 0)
(1.04074 0.0403102 0)
(1.03064 0.0327211 0)
(1.05455 0.0429181 0)
(1.04308 0.0358485 0)
(1.06864 0.0436579 0)
(1.05611 0.0373092 0)
(1.08251 0.0426491 0)
(1.06923 0.0372035 0)
(1.09569 0.0400062 0)
(1.08196 0.0356183 0)
(1.10784 0.0358194 0)
(1.09388 0.0326343 0)
(1.11868 0.0300981 0)
(1.10469 0.028296 0)
(1.12793 0.0227579 0)
(1.11406 0.0225589 0)
(1.13529 0.0136115 0)
(1.12169 0.0153109 0)
(1.14044 0.00237224 0)
(1.12723 0.0063234 0)
(1.14305 -0.0113866 0)
(1.13028 -0.00473685 0)
(1.14274 -0.0283087 0)
(1.1304 -0.0183503 0)
(1.13904 -0.0492568 0)
(1.12706 -0.0351995 0)
(1.13139 -0.0753521 0)
(1.11962 -0.0561918 0)
(1.11915 -0.108081 0)
(1.10728 -0.0825438 0)
(1.1016 -0.14945 0)
(1.08909 -0.115891 0)
(1.07795 -0.202188 0)
(1.0639 -0.158464 0)
(1.04739 -0.270043 0)
(1.03037 -0.213334 0)
(1.00927 -0.358214 0)
(0.986998 -0.284802 0)
(0.963371 -0.474018 0)
(0.932194 -0.378991 0)
(0.910467 -0.627817 0)
(0.864517 -0.504696 2.65982e-33)
(0.853138 -0.833807 0)
(0.783049 -0.674481 -2.63175e-33)
(0.795542 -1.10113 0)
(0.688148 -0.904162 0)
(0.714978 -1.37166 0)
(0.580547 -1.17777 0)
(0.45572 -1.25087 1.80504e-18)
(0.335722 -1.28223 0)
(-0.108325 -0.653858 1.80504e-18)
(-0.173732 -0.787253 1.80504e-18)
(0.447116 -0.149465 0)
(-0.187204 0.241852 0)
(0.0694763 0 0)
(0 -0.0522752 0)
(0.0586466 0 0)
(0 0.00990077 0)
(0.00211057 0 0)
(0 -0.0159812 0)
(0.000370379 0 0)
(0 -0.000253833 0)
(8.84059e-07 0 0)
(0 3.12717e-06 0)
(-0.0147303 0 0)
(0 -0.00408841 0)
(-0.073283 0 0)
(0 -0.00341162 0)
(0.287844 -0.0165054 0)
(0 0.00325928 0)
(-0.652956 -0.0430562 0)
(-0.332212 -0.688092 0)
(-0.477569 0.00221675 0)
(-0.646625 -0.0899179 0)
(-0.234447 0.14087 0)
(-0.528732 -0.0335425 0)
(0.0180267 0.308125 0)
(-0.331456 0.115229 0)
(0.260354 0.465292 0)
(-0.121176 0.280304 0)
(0.482444 0.594396 0)
(0.0898732 0.428232 0)
(0.678324 0.684032 0)
(0.292347 0.544826 0)
(0.845232 0.731498 0)
(0.477715 0.621306 0)
(0.983174 0.740911 0)
(0.64484 0.659408 0)
(1.09609 0.718294 0)