/*--------------------------------*- C++ -*----------------------------------*\
| =========                 |                                                 |
| \\      /  F ield         | OpenFOAM: The Open Source CFD Toolbox           |
|  \\    /   O peration     | Version:  2206                                  |
|   \\  /    A nd           | Website:  www.openfoam.com                      |
|    \\/     M anipulation  |                                                 |
\*---------------------------------------------------------------------------*/
FoamFile
{
    version     2.0;
    format      ascii;
    arch        "LSB;label=32;scalar=64";
    class       volScalarField;
    location    "0.5";
    object      k;
}
// * * * * * * * * * * * * * * * * * * * * * * * * * * * * * * * * * * * * * //

dimensions      [0 2 -2 0 0 0 0];

internalField   nonuniform List<scalar> 
1875
(
8.55207e-05
5.31717e-05
3.76816e-05
2.92448e-05
2.43045e-05
2.15113e-05
2.01012e-05
1.95493e-05
1.94753e-05
1.96212e-05
1.98349e-05
2.00449e-05
2.02279e-05
2.0383e-05
2.05178e-05
2.06418e-05
2.07674e-05
2.09062e-05
2.10684e-05
2.12643e-05
2.15051e-05
2.18032e-05
2.21729e-05
2.26307e-05
2.31942e-05
2.38832e-05
2.47196e-05
2.57281e-05
2.69351e-05
2.83678e-05
3.00502e-05
3.19981e-05
3.42084e-05
3.66311e-05
3.91488e-05
4.14812e-05
4.2997e-05
4.33482e-05
4.24604e-05
4.04998e-05
3.78e-05
3.47874e-05
3.18532e-05
2.92603e-05
2.71159e-05
2.54243e-05
2.41331e-05
2.31679e-05
2.2455e-05
2.19312e-05
2.15467e-05
2.12644e-05
2.10569e-05
2.0904e-05
2.07911e-05
2.07077e-05
2.0646e-05
2.06004e-05
2.05667e-05
2.05419e-05
2.05236e-05
2.05102e-05
2.05003e-05
2.04931e-05
2.04879e-05
2.04841e-05
2.04813e-05
2.04793e-05
2.04779e-05
2.04768e-05
2.04761e-05
2.04757e-05
2.04754e-05
2.04752e-05
2.04746e-05
8.51361e-05
5.37156e-05
3.78304e-05
2.87954e-05
2.33668e-05
1.99776e-05
1.79356e-05
1.68183e-05
1.63211e-05
1.62125e-05
1.63185e-05
1.65197e-05
1.67436e-05
1.69521e-05
1.71301e-05
1.72724e-05
1.73801e-05
1.74645e-05
1.75352e-05
1.75999e-05
1.7665e-05
1.77355e-05
1.78153e-05
1.79066e-05
1.80088e-05
1.8119e-05
1.82322e-05
1.83423e-05
1.84436e-05
1.85348e-05
1.86232e-05
1.87335e-05
1.89131e-05
1.92303e-05
1.97563e-05
2.05274e-05
2.14964e-05
2.23764e-05
2.3031e-05
2.33483e-05
2.32734e-05
2.28386e-05
2.21517e-05
2.13505e-05
2.05577e-05
1.98522e-05
1.92708e-05
1.88168e-05
1.84744e-05
1.82209e-05
1.80341e-05
1.78962e-05
1.77939e-05
1.77174e-05
1.76596e-05
1.76157e-05
1.75822e-05
1.75567e-05
1.75372e-05
1.75223e-05
1.7511e-05
1.75025e-05
1.7496e-05
1.74911e-05
1.74875e-05
1.74847e-05
1.74826e-05
1.74811e-05
1.74799e-05
1.74791e-05
1.74784e-05
1.7478e-05
1.74776e-05
1.74768e-05
1.74735e-05
8.50297e-05
5.35915e-05
3.7847e-05
2.87382e-05
2.3001e-05
1.92208e-05
1.67081e-05
1.5061e-05
1.40366e-05
1.34644e-05
1.32097e-05
1.31639e-05
1.32425e-05
1.33826e-05
1.35414e-05
1.36947e-05
1.38234e-05
1.39203e-05
1.39874e-05
1.40282e-05
1.40465e-05
1.40448e-05
1.40237e-05
1.39807e-05
1.39078e-05
1.3792e-05
1.36155e-05
1.33574e-05
1.29967e-05
1.25187e-05
1.19243e-05
1.12428e-05
1.05411e-05
9.91904e-06
9.48505e-06
9.33619e-06
9.53259e-06
1.00674e-05
1.0795e-05
1.16126e-05
1.24007e-05
1.30575e-05
1.354e-05
1.3851e-05
1.40275e-05
1.41174e-05
1.41626e-05
1.41904e-05
1.42139e-05
1.4236e-05
1.42554e-05
1.42705e-05
1.42807e-05
1.4286e-05
1.42872e-05
1.42855e-05
1.4282e-05
1.42777e-05
1.42732e-05
1.42689e-05
1.42651e-05
1.42619e-05
1.42592e-05
1.4257e-05
1.42552e-05
1.42539e-05
1.42528e-05
1.4252e-05
1.42513e-05
1.42509e-05
1.42505e-05
1.42502e-05
1.42499e-05
1.42492e-05
1.42462e-05
8.49815e-05
5.33329e-05
3.75775e-05
2.85192e-05
2.27786e-05
1.89092e-05
1.6212e-05
1.43133e-05
1.29997e-05
1.2131e-05
1.15987e-05
1.13169e-05
1.12146e-05
1.12311e-05
1.13167e-05
1.14345e-05
1.15607e-05
1.16741e-05
1.17653e-05
1.18305e-05
1.18685e-05
1.18782e-05
1.18562e-05
1.17945e-05
1.16775e-05
1.14821e-05
1.11767e-05
1.07264e-05
1.00997e-05
9.27938e-06
8.27905e-06
7.15986e-06
6.03405e-06
5.03265e-06
4.25323e-06
3.75718e-06
3.57834e-06
3.74942e-06
4.2143e-06
4.91325e-06
5.76356e-06
6.66442e-06
7.54401e-06
8.35196e-06
9.06265e-06
9.67214e-06
1.01888e-05
1.06246e-05
1.09894e-05
1.12899e-05
1.15311e-05
1.17187e-05
1.18599e-05
1.19626e-05
1.20345e-05
1.20832e-05
1.21149e-05
1.21349e-05
1.2147e-05
1.21539e-05
1.21576e-05
1.21594e-05
1.21602e-05
1.21603e-05
1.21602e-05
1.21599e-05
1.21596e-05
1.21594e-05
1.21591e-05
1.2159e-05
1.21588e-05
1.21587e-05
1.21585e-05
1.21578e-05
1.21549e-05
8.49614e-05
5.31747e-05
3.73127e-05
2.82339e-05
2.25088e-05
1.86473e-05
1.59286e-05
1.3975e-05
1.25731e-05
1.15899e-05
1.09327e-05
1.05313e-05
1.03255e-05
1.02622e-05
1.02933e-05
1.03789e-05
1.04903e-05
1.06063e-05
1.07113e-05
1.07962e-05
1.08548e-05
1.08806e-05
1.08633e-05
1.07853e-05
1.0622e-05
1.03328e-05
9.87278e-06
9.19834e-06
8.28073e-06
7.12505e-06
5.79235e-06
4.41399e-06
3.16235e-06
2.17009e-06
1.47102e-06
1.03602e-06
8.28962e-07
8.44547e-07
1.07915e-06
1.51439e-06
2.13035e-06
2.89006e-06
3.74331e-06
4.64138e-06
5.54251e-06
6.41442e-06
7.23335e-06
7.98235e-06
8.64918e-06
9.22545e-06
9.70759e-06
1.00971e-05
1.0401e-05
1.06301e-05
1.07975e-05
1.09159e-05
1.09973e-05
1.10516e-05
1.1087e-05
1.11095e-05
1.11235e-05
1.11319e-05
1.11369e-05
1.11398e-05
1.11414e-05
1.11422e-05
1.11427e-05
1.11429e-05
1.1143e-05
1.1143e-05
1.1143e-05
1.1143e-05
1.11429e-05
1.11422e-05
1.11389e-05
8.49528e-05
5.30942e-05
3.7143e-05
2.80085e-05
2.22644e-05
1.84055e-05
1.56961e-05
1.37474e-05
1.23399e-05
1.13402e-05
1.0659e-05
1.02288e-05
9.99325e-06
9.90203e-06
9.91083e-06
9.98175e-06
1.00849e-05
1.01989e-05
1.03074e-05
1.03987e-05
1.04623e-05
1.04857e-05
1.04487e-05
1.03222e-05
1.00643e-05
9.62346e-06
8.94758e-06
7.99892e-06
6.77498e-06
5.33377e-06
3.81268e-06
2.4235e-06
1.35226e-06
6.65173e-07
2.9048e-07
1.15158e-07
5.07382e-08
4.96085e-08
1.0957e-07
2.64201e-07
5.54656e-07
1.00899e-06
1.61416e-06
2.35145e-06
3.18995e-06
4.09576e-06
5.03163e-06
5.9591e-06
6.84195e-06
7.64903e-06
8.3574e-06
8.95441e-06
9.43806e-06
9.81531e-06
1.00999e-05
1.03076e-05
1.04545e-05
1.05555e-05
1.06231e-05
1.06673e-05
1.06956e-05
1.07132e-05
1.07241e-05
1.07307e-05
1.07345e-05
1.07368e-05
1.07381e-05
1.07389e-05
1.07393e-05
1.07395e-05
1.07396e-05
1.07397e-05
1.07396e-05
1.07389e-05
1.07352e-05
8.49489e-05
5.30541e-05
3.70485e-05
2.78664e-05
2.20918e-05
1.822e-05
1.55115e-05
1.35724e-05
1.21782e-05
1.1192e-05
1.05218e-05
1.00991e-05
9.86726e-06
9.77678e-06
9.78538e-06
9.85617e-06
9.95922e-06
1.00726e-05
1.01801e-05
1.02681e-05
1.0322e-05
1.03214e-05
1.02362e-05
1.00246e-05
9.6307e-06
8.99653e-06
8.07599e-06
6.85589e-06
5.38183e-06
3.78256e-06
2.27311e-06
1.10596e-06
4.00498e-07
9.92035e-08
2.32572e-08
3.2446e-09
8.13978e-10
9.58928e-10
3.88747e-09
1.73936e-08
7.34344e-08
2.55609e-07
5.87871e-07
1.08388e-06
1.73941e-06
2.53366e-06
3.43568e-06
4.40397e-06
5.39058e-06
6.34681e-06
7.22981e-06
8.00802e-06
8.66406e-06
9.19452e-06
9.60698e-06
9.91633e-06
1.01407e-05
1.02985e-05
1.04066e-05
1.04786e-05
1.05256e-05
1.05555e-05
1.05742e-05
1.05857e-05
1.05926e-05
1.05967e-05
1.05991e-05
1.06005e-05
1.06013e-05
1.06018e-05
1.0602e-05
1.06021e-05
1.06021e-05
1.06014e-05
1.05975e-05
8.49469e-05
5.30336e-05
3.69967e-05
2.77831e-05
2.19835e-05
1.8096e-05
1.53818e-05
1.3446e-05
1.20624e-05
1.10912e-05
1.04378e-05
1.00312e-05
9.81306e-06
9.73338e-06
9.74897e-06
9.82365e-06
9.92839e-06
1.00412e-05
1.0145e-05
1.02239e-05
1.02582e-05
1.02194e-05
1.00662e-05
9.74403e-06
9.19099e-06
8.35236e-06
7.20082e-06
5.76123e-06
4.13622e-06
2.52351e-06
1.19343e-06
3.7179e-07
5.86512e-08
1.01594e-08
0.00015
0.00015
0.00015
0.00015
0.00015
0.00015
3.16877e-09
3.34944e-08
1.59877e-07
4.38413e-07
8.9321e-07
1.52483e-06
2.31516e-06
3.2317e-06
4.22861e-06
5.25111e-06
6.24344e-06
7.15741e-06
7.95871e-06
8.62964e-06
9.16766e-06
9.58275e-06
9.89148e-06
1.01136e-05
1.02686e-05
1.03737e-05
1.04433e-05
1.04883e-05
1.05168e-05
1.05345e-05
1.05453e-05
1.05517e-05
1.05556e-05
1.05578e-05
1.05591e-05
1.05598e-05
1.05602e-05
1.05604e-05
1.05604e-05
1.05598e-05
1.05557e-05
8.49458e-05
5.30224e-05
3.69673e-05
2.77342e-05
2.19177e-05
1.8018e-05
1.52974e-05
1.33615e-05
1.19837e-05
1.1023e-05
1.03827e-05
9.98987e-06
9.78439e-06
9.71504e-06
9.73808e-06
9.81726e-06
9.9237e-06
1.00351e-05
1.01334e-05
1.01992e-05
1.02072e-05
1.01203e-05
9.88742e-06
9.44629e-06
8.73484e-06
7.70991e-06
6.37069e-06
4.78367e-06
3.10483e-06
1.58781e-06
5.2436e-07
7.30305e-08
2.67786e-08
0.00015
0.00015
0.00015
0.00015
0.00015
0.00015
0.00015
0.00015
1.3664e-09
1.79987e-08
1.3174e-07
4.12296e-07
8.83167e-07
1.54028e-06
2.36252e-06
3.31323e-06
4.34097e-06
5.38568e-06
6.38848e-06
7.30079e-06
8.09038e-06
8.74274e-06
9.25923e-06
9.65248e-06
9.94139e-06
1.01468e-05
1.02886e-05
1.03839e-05
1.04463e-05
1.04863e-05
1.05113e-05
1.05268e-05
1.05361e-05
1.05417e-05
1.05449e-05
1.05468e-05
1.05479e-05
1.05485e-05
1.05488e-05
1.05489e-05
1.05483e-05
1.05442e-05
8.49452e-05
5.30158e-05
3.69499e-05
2.7705e-05
2.18777e-05
1.79697e-05
1.52443e-05
1.33075e-05
1.19327e-05
1.09784e-05
1.03469e-05
9.96369e-06
9.76735e-06
9.70565e-06
9.73427e-06
9.81676e-06
9.9241e-06
1.00334e-05
1.01247e-05
1.01753e-05
1.0154e-05
1.00161e-05
9.7035e-06
9.15064e-06
8.3003e-06
7.12502e-06
5.65128e-06
3.98253e-06
2.3184e-06
9.53902e-07
1.80672e-07
1.55423e-08
0.00015
0.00015
0.00015
0.00015
0.00015
0.00015
0.00015
0.00015
0.00015
0.00015
1.99218e-09
3.25403e-08
1.79727e-07
5.03714e-07
1.02431e-06
1.73515e-06
2.61032e-06
3.60532e-06
4.66135e-06
5.71418e-06
6.70483e-06
7.58827e-06
8.33793e-06
8.94567e-06
9.41823e-06
9.77193e-06
1.00277e-05
1.02068e-05
1.03288e-05
1.04097e-05
1.04621e-05
1.04952e-05
1.05159e-05
1.05284e-05
1.05359e-05
1.05404e-05
1.0543e-05
1.05445e-05
1.05453e-05
1.05458e-05
1.05459e-05
1.05453e-05
1.05412e-05
8.49449e-05
5.3012e-05
3.69397e-05
2.76876e-05
2.18538e-05
1.79408e-05
1.52121e-05
1.32744e-05
1.19013e-05
1.09508e-05
1.03247e-05
9.94761e-06
9.7572e-06
9.7005e-06
9.73277e-06
9.81729e-06
9.92479e-06
1.00316e-05
1.01158e-05
1.01514e-05
1.01023e-05
9.91848e-06
9.53718e-06
8.89297e-06
7.93553e-06
6.65257e-06
5.09329e-06
3.38927e-06
1.7727e-06
5.71105e-07
7.11634e-08
7.69487e-07
0.00015
0.00015
0.00015
0.00015
0.00015
0.00015
0.00015
0.00015
0.00015
0.00015
1.22049e-10
4.58044e-09
6.71534e-08
2.76695e-07
6.80835e-07
1.28916e-06
2.08629e-06
3.03545e-06
4.08154e-06
5.1587e-06
6.20124e-06
7.15436e-06
7.98111e-06
8.66451e-06
9.20511e-06
9.61596e-06
9.91708e-06
1.01306e-05
1.02776e-05
1.0376e-05
1.04403e-05
1.04814e-05
1.05071e-05
1.05228e-05
1.05324e-05
1.0538e-05
1.05413e-05
1.05432e-05
1.05443e-05
1.05449e-05
1.05451e-05
1.05445e-05
1.05405e-05
8.49447e-05
5.30099e-05
3.69343e-05
2.76783e-05
2.1841e-05
1.79252e-05
1.51948e-05
1.32566e-05
1.18843e-05
1.09359e-05
1.03129e-05
9.93935e-06
9.7524e-06
9.69864e-06
9.73301e-06
9.81859e-06
9.92584e-06
1.00304e-05
1.01088e-05
1.01328e-05
1.00631e-05
9.84617e-06
9.41742e-06
8.71252e-06
7.68688e-06
6.33892e-06
4.73283e-06
3.01776e-06
1.44728e-06
3.77906e-07
6.29152e-08
0.00015
0.00015
0.00015
0.00015
0.00015
0.00015
0.00015
0.00015
0.00015
0.00015
0.00015
4.0974e-11
1.40295e-09
3.00573e-08
1.64609e-07
4.79564e-07
1.00649e-06
1.74029e-06
2.64922e-06
3.68051e-06
4.76753e-06
5.84063e-06
6.83866e-06
7.71753e-06
8.45382e-06
9.04323e-06
9.496e-06
9.83104e-06
1.00707e-05
1.0237e-05
1.03491e-05
1.04229e-05
1.04703e-05
1.05002e-05
1.05186e-05
1.05298e-05
1.05364e-05
1.05403e-05
1.05426e-05
1.05439e-05
1.05446e-05
1.05449e-05
1.05443e-05
1.05403e-05
8.49447e-05
5.30093e-05
3.69325e-05
2.76753e-05
2.18369e-05
1.79202e-05
1.51893e-05
1.32512e-05
1.18795e-05
1.09322e-05
1.03107e-05
9.93879e-06
9.75346e-06
9.70101e-06
9.73623e-06
9.82208e-06
9.9289e-06
1.0032e-05
1.01076e-05
1.01265e-05
1.00484e-05
9.81888e-06
9.37286e-06
8.64663e-06
7.59755e-06
6.22733e-06
4.60489e-06
2.88527e-06
1.33363e-06
3.27018e-07
3.02776e-08
0.00015
0.00015
0.00015
0.00015
0.00015
0.00015
0.00015
0.00015
0.00015
0.00015
0.00015
0.00015
5.63271e-10
1.62343e-08
1.1684e-07
3.91987e-07
8.856e-07
1.5958e-06
2.49055e-06
3.51659e-06
4.60673e-06
5.69025e-06
6.70429e-06
7.60261e-06
8.3595e-06
8.96877e-06
9.4393e-06
9.78929e-06
1.00409e-05
1.02163e-05
1.03352e-05
1.04137e-05
1.04644e-05
1.04964e-05
1.05163e-05
1.05284e-05
1.05356e-05
1.05398e-05
1.05423e-05
1.05437e-05
1.05445e-05
1.05448e-05
1.05443e-05
1.05402e-05
8.49447e-05
5.30099e-05
3.69343e-05
2.76783e-05
2.18411e-05
1.79253e-05
1.51952e-05
1.32577e-05
1.18864e-05
1.09394e-05
1.0318e-05
9.94616e-06
9.76072e-06
9.70802e-06
9.74284e-06
9.82818e-06
9.9345e-06
1.00375e-05
1.0114e-05
1.0136e-05
1.00646e-05
9.84679e-06
9.4186e-06
8.71599e-06
7.69409e-06
6.35028e-06
4.74757e-06
3.03433e-06
1.46571e-06
4.05909e-07
3.14042e-08
0.00015
0.00015
0.00015
0.00015
0.00015
0.00015
0.00015
0.00015
0.00015
0.00015
0.00015
5.08935e-11
1.26601e-09
2.82593e-08
1.59889e-07
4.71807e-07
9.95957e-07
1.72655e-06
2.63064e-06
3.65511e-06
4.73431e-06
5.80035e-06
6.79371e-06
7.67122e-06
8.40942e-06
9.00332e-06
9.4621e-06
9.80365e-06
1.00496e-05
1.02213e-05
1.03379e-05
1.04152e-05
1.04652e-05
1.04968e-05
1.05165e-05
1.05285e-05
1.05356e-05
1.05399e-05
1.05423e-05
1.05437e-05
1.05445e-05
1.05448e-05
1.05443e-05
1.05403e-05
8.49449e-05
5.3012e-05
3.69397e-05
2.76876e-05
2.18539e-05
1.79411e-05
1.52131e-05
1.32766e-05
1.19054e-05
1.09575e-05
1.03345e-05
9.96064e-06
9.77305e-06
9.71834e-06
9.75143e-06
9.83549e-06
9.94127e-06
1.00453e-05
1.01259e-05
1.01577e-05
1.01052e-05
9.91932e-06
9.53849e-06
8.89802e-06
7.94737e-06
6.67267e-06
5.12074e-06
3.42068e-06
1.80325e-06
6.0044e-07
7.69248e-08
7.67075e-07
0.00015
0.00015
0.00015
0.00015
0.00015
0.00015
0.00015
0.00015
0.00015
0.00015
1.0845e-10
4.04098e-09
6.28617e-08
2.68083e-07
6.68769e-07
1.27314e-06
2.06345e-06
3.00139e-06
4.03259e-06
5.09398e-06
6.12336e-06
7.06864e-06
7.89405e-06
8.58214e-06
9.13187e-06
9.55433e-06
9.86767e-06
1.00927e-05
1.02496e-05
1.03561e-05
1.04266e-05
1.04722e-05
1.05011e-05
1.05191e-05
1.053e-05
1.05366e-05
1.05405e-05
1.05427e-05
1.0544e-05
1.05447e-05
1.0545e-05
1.05445e-05
1.05404e-05
8.49452e-05
5.30158e-05
3.695e-05
2.7705e-05
2.18779e-05
1.79703e-05
1.52458e-05
1.33107e-05
1.19388e-05
1.09882e-05
1.03612e-05
9.98248e-06
9.79012e-06
9.73116e-06
9.76089e-06
9.84267e-06
9.94758e-06
1.0053e-05
1.01393e-05
1.01846e-05
1.01582e-05
1.00169e-05
9.70398e-06
9.1553e-06
8.3138e-06
7.15036e-06
5.68812e-06
4.02687e-06
2.36461e-06
1.00328e-06
3.57552e-07
2.44053e-08
0.00015
0.00015
0.00015
0.00015
0.00015
0.00015
0.00015
0.00015
0.00015
0.00015
1.87219e-09
3.09792e-08
1.73354e-07
4.93062e-07
1.00985e-06
1.71413e-06
2.57685e-06
3.55307e-06
4.58666e-06
5.618e-06
6.59257e-06
7.46823e-06
8.21905e-06
8.83557e-06
9.32206e-06
9.69218e-06
9.9645e-06
1.01588e-05
1.02936e-05
1.03848e-05
1.0445e-05
1.04838e-05
1.05084e-05
1.05237e-05
1.0533e-05
1.05385e-05
1.05418e-05
1.05437e-05
1.05448e-05
1.05454e-05
1.05456e-05
1.0545e-05
1.05409e-05
8.49458e-05
5.30224e-05
3.69673e-05
2.77343e-05
2.19179e-05
1.80188e-05
1.52994e-05
1.33659e-05
1.19916e-05
1.10357e-05
1.0401e-05
1.00139e-05
9.81329e-06
9.74724e-06
9.77148e-06
9.84958e-06
9.95285e-06
1.00594e-05
1.01515e-05
1.02107e-05
1.02123e-05
1.01205e-05
9.88594e-06
9.44837e-06
8.74658e-06
7.73625e-06
6.41285e-06
4.83783e-06
3.1636e-06
1.64501e-06
5.95636e-07
8.49539e-08
2.66599e-08
0.00015
0.00015
0.00015
0.00015
0.00015
0.00015
0.00015
0.00015
1.31087e-09
1.88434e-08
1.3116e-07
4.06371e-07
8.71085e-07
1.52e-06
2.32855e-06
3.25819e-06
4.25925e-06
5.27641e-06
6.25625e-06
7.15448e-06
7.94072e-06
8.59985e-06
9.13081e-06
9.54305e-06
9.85243e-06
1.00775e-05
1.02366e-05
1.03461e-05
1.04196e-05
1.04679e-05
1.0499e-05
1.05186e-05
1.05307e-05
1.0538e-05
1.05424e-05
1.0545e-05
1.05465e-05
1.05473e-05
1.05478e-05
1.05479e-05
1.05473e-05
1.05431e-05
8.49469e-05
5.30336e-05
3.69967e-05
2.77832e-05
2.19838e-05
1.80971e-05
1.53844e-05
1.34514e-05
1.20721e-05
1.11066e-05
1.04597e-05
1.00595e-05
9.84675e-06
9.77047e-06
9.78694e-06
9.85989e-06
9.96057e-06
1.00675e-05
1.01643e-05
1.02357e-05
1.02625e-05
1.02175e-05
1.00611e-05
9.74095e-06
9.19696e-06
8.37432e-06
7.24271e-06
5.82141e-06
4.20737e-06
2.59613e-06
1.26704e-06
4.48428e-07
7.00991e-08
6.35972e-09
0.00015
0.00015
0.00015
0.00015
0.00015
0.00015
3.17762e-09
3.25622e-08
1.56981e-07
4.29108e-07
8.75462e-07
1.49571e-06
2.2693e-06
3.16197e-06
4.12911e-06
5.12032e-06
6.08562e-06
6.98176e-06
7.77706e-06
8.45374e-06
9.00704e-06
9.4435e-06
9.77619e-06
1.0022e-05
1.01983e-05
1.03215e-05
1.04055e-05
1.04614e-05
1.04979e-05
1.05212e-05
1.05358e-05
1.05448e-05
1.05503e-05
1.05535e-05
1.05554e-05
1.05565e-05
1.05571e-05
1.05574e-05
1.05574e-05
1.05567e-05
1.05526e-05
8.49489e-05
5.30542e-05
3.70485e-05
2.78665e-05
2.20922e-05
1.82213e-05
1.55146e-05
1.35788e-05
1.21895e-05
1.12095e-05
1.05463e-05
1.01301e-05
9.90339e-06
9.81556e-06
9.82393e-06
9.89172e-06
9.98947e-06
1.0096e-05
1.01958e-05
1.02757e-05
1.03216e-05
1.03141e-05
1.02245e-05
1.00131e-05
9.62628e-06
9.00754e-06
8.10949e-06
6.91451e-06
5.46154e-06
3.87322e-06
2.36323e-06
1.1845e-06
4.39987e-07
1.00932e-07
1.94904e-08
3.06717e-09
8.395e-10
9.84625e-10
3.90292e-09
1.73216e-08
7.56693e-08
2.55451e-07
5.80241e-07
1.06193e-06
1.69681e-06
2.46455e-06
3.33466e-06
4.26771e-06
5.21988e-06
6.14768e-06
7.01275e-06
7.78596e-06
8.44975e-06
8.99832e-06
9.43575e-06
9.77306e-06
1.00252e-05
1.02083e-05
1.03379e-05
1.04273e-05
1.04876e-05
1.05274e-05
1.05531e-05
1.05695e-05
1.05796e-05
1.05858e-05
1.05895e-05
1.05917e-05
1.0593e-05
1.05937e-05
1.05941e-05
1.05943e-05
1.05943e-05
1.05936e-05
1.05894e-05
8.49528e-05
5.30942e-05
3.7143e-05
2.80086e-05
2.22649e-05
1.84071e-05
1.56998e-05
1.37549e-05
1.23528e-05
1.13596e-05
1.06851e-05
1.02605e-05
1.00284e-05
9.93768e-06
9.9439e-06
1.00096e-05
1.01056e-05
1.02116e-05
1.03119e-05
1.03949e-05
1.04509e-05
1.04675e-05
1.04257e-05
1.02979e-05
1.00446e-05
9.61657e-06
8.9626e-06
8.04306e-06
6.85039e-06
5.43524e-06
3.92747e-06
2.53344e-06
1.43745e-06
7.07699e-07
3.06068e-07
1.19762e-07
5.31821e-08
5.18943e-08
1.12449e-07
2.66802e-07
5.53959e-07
9.92239e-07
1.57179e-06
2.27455e-06
3.07247e-06
3.93527e-06
4.82978e-06
5.72185e-06
6.57927e-06
7.37381e-06
8.08356e-06
8.69477e-06
9.20263e-06
9.61028e-06
9.92768e-06
1.01673e-05
1.0343e-05
1.04684e-05
1.05558e-05
1.06152e-05
1.06548e-05
1.06806e-05
1.06971e-05
1.07075e-05
1.07139e-05
1.07177e-05
1.072e-05
1.07213e-05
1.07221e-05
1.07225e-05
1.07227e-05
1.07228e-05
1.07227e-05
1.0722e-05
1.07178e-05
8.49614e-05
5.31747e-05
3.73127e-05
2.8234e-05
2.25094e-05
1.86492e-05
1.59333e-05
1.39842e-05
1.25881e-05
1.16113e-05
1.09595e-05
1.05613e-05
1.03556e-05
1.02889e-05
1.03137e-05
1.0391e-05
1.04931e-05
1.06001e-05
1.06967e-05
1.0774e-05
1.0826e-05
1.08462e-05
1.08246e-05
1.07447e-05
1.05836e-05
1.03034e-05
9.86108e-06
9.21401e-06
8.33158e-06
7.21395e-06
5.91432e-06
4.55496e-06
3.3031e-06
2.28856e-06
1.56178e-06
1.10515e-06
8.844e-07
8.88778e-07
1.10875e-06
1.52131e-06
2.1018e-06
2.81124e-06
3.60467e-06
4.44075e-06
5.28521e-06
6.11163e-06
6.89979e-06
7.63408e-06
8.30188e-06
8.89312e-06
9.40145e-06
9.82482e-06
1.01664e-05
1.04336e-05
1.06365e-05
1.07862e-05
1.08938e-05
1.09691e-05
1.10206e-05
1.1055e-05
1.10775e-05
1.1092e-05
1.1101e-05
1.11065e-05
1.11098e-05
1.11118e-05
1.11129e-05
1.11134e-05
1.11138e-05
1.11139e-05
1.11139e-05
1.11139e-05
1.11138e-05
1.1113e-05
1.11088e-05
8.49815e-05
5.33329e-05
3.75775e-05
2.85193e-05
2.27793e-05
1.89117e-05
1.62182e-05
1.4325e-05
1.30177e-05
1.21546e-05
1.16253e-05
1.13428e-05
1.12356e-05
1.12439e-05
1.13193e-05
1.14261e-05
1.1542e-05
1.16469e-05
1.17309e-05
1.17903e-05
1.18237e-05
1.18296e-05
1.18045e-05
1.17407e-05
1.1624e-05
1.14331e-05
1.11389e-05
1.07086e-05
1.01116e-05
9.32951e-06
8.3714e-06
7.29103e-06
6.1925e-06
5.20047e-06
4.41548e-06
3.90529e-06
3.70431e-06
3.83846e-06
4.24646e-06
4.86794e-06
5.62468e-06
6.42681e-06
7.21629e-06
7.95451e-06
8.62239e-06
9.21645e-06
9.74114e-06
1.02027e-05
1.06051e-05
1.09499e-05
1.12381e-05
1.1472e-05
1.16562e-05
1.17967e-05
1.19008e-05
1.19755e-05
1.20276e-05
1.20631e-05
1.20865e-05
1.21015e-05
1.21108e-05
1.21165e-05
1.21197e-05
1.21215e-05
1.21223e-05
1.21227e-05
1.21228e-05
1.21228e-05
1.21226e-05
1.21225e-05
1.21224e-05
1.21223e-05
1.2122e-05
1.21212e-05
1.21171e-05
8.50297e-05
5.35914e-05
3.78469e-05
2.87381e-05
2.30017e-05
1.92243e-05
1.67165e-05
1.50759e-05
1.40575e-05
1.34885e-05
1.32325e-05
1.31808e-05
1.325e-05
1.33791e-05
1.35271e-05
1.36709e-05
1.37924e-05
1.38842e-05
1.39477e-05
1.3986e-05
1.40023e-05
1.39986e-05
1.39752e-05
1.39298e-05
1.3855e-05
1.37395e-05
1.35672e-05
1.33195e-05
1.29773e-05
1.25265e-05
1.19666e-05
1.13225e-05
1.06536e-05
1.00508e-05
9.61618e-06
9.44238e-06
9.58483e-06
1.00342e-05
1.06463e-05
1.13305e-05
1.19877e-05
1.25381e-05
1.29546e-05
1.32454e-05
1.34414e-05
1.3579e-05
1.36873e-05
1.37836e-05
1.3874e-05
1.39575e-05
1.40311e-05
1.40921e-05
1.41401e-05
1.41756e-05
1.42004e-05
1.42165e-05
1.42262e-05
1.42314e-05
1.42336e-05
1.42339e-05
1.42331e-05
1.42319e-05
1.42305e-05
1.42292e-05
1.42279e-05
1.42269e-05
1.4226e-05
1.42253e-05
1.42247e-05
1.42243e-05
1.42239e-05
1.42236e-05
1.42233e-05
1.42225e-05
1.42186e-05
8.51361e-05
5.37156e-05
3.78302e-05
2.87954e-05
2.33681e-05
1.99822e-05
1.79453e-05
1.68326e-05
1.63372e-05
1.62259e-05
1.63253e-05
1.65181e-05
1.67338e-05
1.69357e-05
1.71096e-05
1.725e-05
1.73576e-05
1.74428e-05
1.75145e-05
1.758e-05
1.76451e-05
1.77147e-05
1.77927e-05
1.78814e-05
1.79808e-05
1.80893e-05
1.82032e-05
1.83183e-05
1.84308e-05
1.85398e-05
1.8652e-05
1.87879e-05
1.89867e-05
1.93045e-05
1.97992e-05
2.04961e-05
2.13461e-05
2.20754e-05
2.2568e-05
2.27413e-05
2.25684e-05
2.20974e-05
2.14352e-05
2.0704e-05
2.00052e-05
1.93997e-05
1.89119e-05
1.8539e-05
1.82636e-05
1.80637e-05
1.79189e-05
1.78132e-05
1.77351e-05
1.76765e-05
1.76317e-05
1.75971e-05
1.75701e-05
1.7549e-05
1.75325e-05
1.75197e-05
1.75096e-05
1.75019e-05
1.74959e-05
1.74913e-05
1.74879e-05
1.74852e-05
1.74832e-05
1.74817e-05
1.74805e-05
1.74797e-05
1.7479e-05
1.74786e-05
1.74783e-05
1.74777e-05
1.74745e-05
8.55207e-05
5.31719e-05
3.76824e-05
2.92472e-05
2.43096e-05
2.15189e-05
2.01092e-05
1.95541e-05
1.94739e-05
1.96126e-05
1.98204e-05
2.00273e-05
2.02103e-05
2.03679e-05
2.05069e-05
2.06357e-05
2.07662e-05
2.0909e-05
2.10742e-05
2.1272e-05
2.15135e-05
2.18112e-05
2.21798e-05
2.26359e-05
2.31982e-05
2.38881e-05
2.47295e-05
2.57496e-05
2.69774e-05
2.84413e-05
3.0164e-05
3.21554e-05
3.43987e-05
3.68234e-05
3.92904e-05
4.15084e-05
4.28568e-05
4.30236e-05
4.19756e-05
3.99118e-05
3.7181e-05
3.42026e-05
3.13458e-05
2.88485e-05
2.67988e-05
2.51904e-05
2.3967e-05
2.30546e-05
2.23816e-05
2.18873e-05
2.15244e-05
2.12575e-05
2.10609e-05
2.09156e-05
2.08079e-05
2.07279e-05
2.06685e-05
2.06243e-05
2.05915e-05
2.05673e-05
2.05493e-05
2.05361e-05
2.05263e-05
2.05192e-05
2.05139e-05
2.05101e-05
2.05073e-05
2.05053e-05
2.05038e-05
2.05028e-05
2.05021e-05
2.05018e-05
2.05018e-05
2.05017e-05
2.04993e-05
)
;

boundaryField
{
    ibCylinder
    {
        type            immersedBoundaryKqRWallFunction;
        patchType       immersedBoundary;
        setDeadValue    true;
        deadValue       0.00015;
        value           nonuniform List<scalar> 0();
    }
    in
    {
        type            fixedValue;
        value           uniform 0.00015;
    }
    out
    {
        type            inletOutlet;
        inletValue      uniform 0.00015;
        value           nonuniform List<scalar> 
25
(
2.04746e-05
1.74735e-05
1.42462e-05
1.21549e-05
1.11389e-05
1.07352e-05
1.05975e-05
1.05557e-05
1.05442e-05
1.05412e-05
1.05405e-05
1.05403e-05
1.05402e-05
1.05403e-05
1.05404e-05
1.05409e-05
1.05431e-05
1.05526e-05
1.05894e-05
1.07178e-05
1.11088e-05
1.21171e-05
1.42186e-05
1.74745e-05
2.04993e-05
)
;
    }
    top
    {
        type            zeroGradient;
    }
    bottom
    {
        type            zeroGradient;
    }
    frontAndBack
    {
        type            empty;
    }
}


// ************************************************************************* //
