/*--------------------------------*- C++ -*----------------------------------*\
| =========                 |                                                 |
| \\      /  F ield         | OpenFOAM: The Open Source CFD Toolbox           |
|  \\    /   O peration     | Version:  2206                                  |
|   \\  /    A nd           | Website:  www.openfoam.com                      |
|    \\/     M anipulation  |                                                 |
\*---------------------------------------------------------------------------*/
FoamFile
{
    version     2.0;
    format      ascii;
    arch        "LSB;label=32;scalar=64";
    class       volScalarField;
    location    "0.5";
    object      nut;
}
// * * * * * * * * * * * * * * * * * * * * * * * * * * * * * * * * * * * * * //

dimensions      [0 2 -1 0 0 0 0];

internalField   nonuniform List<scalar> 
1875
(
2.91408e-07
2.88078e-07
2.94287e-07
3.07798e-07
3.27732e-07
3.55955e-07
3.9319e-07
4.37424e-07
4.84204e-07
5.28507e-07
5.66642e-07
5.97056e-07
6.19981e-07
6.36618e-07
6.48462e-07
6.56908e-07
6.63187e-07
6.6824e-07
6.72764e-07
6.7728e-07
6.82193e-07
6.87829e-07
6.94454e-07
7.02268e-07
7.11383e-07
7.21806e-07
7.33422e-07
7.45994e-07
7.59169e-07
7.72551e-07
7.85881e-07
7.99361e-07
8.13959e-07
8.31203e-07
8.52377e-07
8.76157e-07
8.94937e-07
9.03469e-07
9.00567e-07
8.87037e-07
8.64992e-07
8.377e-07
8.08759e-07
7.81182e-07
7.56739e-07
7.36193e-07
7.19574e-07
7.06476e-07
6.96319e-07
6.88516e-07
6.82555e-07
6.78018e-07
6.74577e-07
6.71972e-07
6.70003e-07
6.6852e-07
6.67405e-07
6.6657e-07
6.65946e-07
6.65482e-07
6.65137e-07
6.64883e-07
6.64695e-07
6.64557e-07
6.64456e-07
6.64382e-07
6.64328e-07
6.64289e-07
6.64261e-07
6.64241e-07
6.64229e-07
6.64227e-07
6.6424e-07
6.64285e-07
6.64368e-07
2.9033e-07
2.83192e-07
2.79983e-07
2.81314e-07
2.88137e-07
3.00764e-07
3.2044e-07
3.47521e-07
3.80803e-07
4.17612e-07
4.54548e-07
4.8855e-07
5.17632e-07
5.41034e-07
5.58974e-07
5.72139e-07
5.8143e-07
5.87919e-07
5.92474e-07
5.95761e-07
5.98264e-07
6.00309e-07
6.02074e-07
6.03584e-07
6.04666e-07
6.04928e-07
6.03719e-07
6.00111e-07
5.92923e-07
5.809e-07
5.63201e-07
5.40351e-07
5.15303e-07
4.93485e-07
4.80902e-07
4.81849e-07
4.96182e-07
5.14021e-07
5.32701e-07
5.50498e-07
5.65953e-07
5.78299e-07
5.87531e-07
5.9409e-07
5.98542e-07
6.01367e-07
6.02981e-07
6.03717e-07
6.03832e-07
6.03523e-07
6.0295e-07
6.02238e-07
6.01487e-07
6.00758e-07
6.00089e-07
5.995e-07
5.99e-07
5.98585e-07
5.98249e-07
5.9798e-07
5.97769e-07
5.97605e-07
5.97478e-07
5.97381e-07
5.97307e-07
5.97252e-07
5.9721e-07
5.97178e-07
5.97155e-07
5.97137e-07
5.97125e-07
5.9712e-07
5.97128e-07
5.97176e-07
5.9737e-07
2.90041e-07
2.8207e-07
2.7655e-07
2.73358e-07
2.72841e-07
2.7559e-07
2.82474e-07
2.94108e-07
3.10818e-07
3.32249e-07
3.57206e-07
3.83876e-07
4.10253e-07
4.34569e-07
4.55622e-07
4.72916e-07
4.86312e-07
4.9614e-07
5.03023e-07
5.07581e-07
5.1034e-07
5.11671e-07
5.11743e-07
5.10475e-07
5.07426e-07
5.01733e-07
4.92011e-07
4.76305e-07
4.522e-07
4.17402e-07
3.71198e-07
3.16692e-07
2.61716e-07
2.15673e-07
1.84154e-07
1.69117e-07
1.70519e-07
1.83592e-07
2.03666e-07
2.29916e-07
2.60683e-07
2.93998e-07
3.28187e-07
3.61785e-07
3.93504e-07
4.22196e-07
4.46982e-07
4.674e-07
4.83447e-07
4.95505e-07
5.04191e-07
5.10207e-07
5.14225e-07
5.16811e-07
5.18409e-07
5.19352e-07
5.19875e-07
5.20141e-07
5.20256e-07
5.20286e-07
5.20274e-07
5.20242e-07
5.20205e-07
5.20169e-07
5.20137e-07
5.2011e-07
5.20089e-07
5.20072e-07
5.20058e-07
5.20048e-07
5.20041e-07
5.20037e-07
5.20041e-07
5.20068e-07
5.20199e-07
2.89952e-07
2.817e-07
2.75543e-07
2.71049e-07
2.68174e-07
2.67149e-07
2.68435e-07
2.72617e-07
2.80294e-07
2.91814e-07
3.07025e-07
3.25268e-07
3.45429e-07
3.66105e-07
3.85896e-07
4.03695e-07
4.18888e-07
4.31071e-07
4.40313e-07
4.46915e-07
4.51231e-07
4.53522e-07
4.53814e-07
4.51765e-07
4.46476e-07
4.36338e-07
4.18898e-07
3.90967e-07
3.49322e-07
2.92679e-07
2.2505e-07
1.57469e-07
1.02711e-07
6.63648e-08
4.52827e-08
3.47734e-08
3.22193e-08
3.57904e-08
4.40657e-08
5.77869e-08
7.74278e-08
1.03022e-07
1.34277e-07
1.70416e-07
2.10129e-07
2.51584e-07
2.92546e-07
3.30737e-07
3.64299e-07
3.92158e-07
4.14096e-07
4.3058e-07
4.42478e-07
4.50769e-07
4.5637e-07
4.60048e-07
4.62403e-07
4.63874e-07
4.64769e-07
4.65301e-07
4.65607e-07
4.65779e-07
4.65871e-07
4.65917e-07
4.65938e-07
4.65946e-07
4.65948e-07
4.65946e-07
4.65944e-07
4.65941e-07
4.65939e-07
4.65938e-07
4.6594e-07
4.65954e-07
4.6603e-07
2.89926e-07
2.8156e-07
2.75166e-07
2.70258e-07
2.66637e-07
2.64362e-07
2.63722e-07
2.65179e-07
2.69265e-07
2.76431e-07
2.86873e-07
3.00428e-07
3.16493e-07
3.34088e-07
3.51999e-07
3.69054e-07
3.8438e-07
3.97418e-07
4.07887e-07
4.15792e-07
4.2124e-07
4.24239e-07
4.24467e-07
4.21048e-07
4.12359e-07
3.95668e-07
3.6739e-07
3.23805e-07
2.63292e-07
1.9038e-07
1.18274e-07
6.27685e-08
2.97677e-08
1.37697e-08
6.67213e-09
3.60752e-09
2.60178e-09
2.90916e-09
4.48396e-09
7.96252e-09
1.43675e-08
2.50289e-08
4.11081e-08
6.35764e-08
9.29126e-08
1.28854e-07
1.70127e-07
2.14393e-07
2.58606e-07
2.99712e-07
3.35403e-07
3.64519e-07
3.87014e-07
4.03612e-07
4.15392e-07
4.23479e-07
4.28875e-07
4.32388e-07
4.34623e-07
4.36018e-07
4.36872e-07
4.37386e-07
4.3769e-07
4.37867e-07
4.37969e-07
4.38027e-07
4.3806e-07
4.38077e-07
4.38087e-07
4.38093e-07
4.38096e-07
4.38098e-07
4.381e-07
4.38108e-07
4.38145e-07
2.89918e-07
2.81508e-07
2.75006e-07
2.69927e-07
2.66049e-07
2.63385e-07
2.62164e-07
2.62783e-07
2.65734e-07
2.71473e-07
2.80272e-07
2.92082e-07
3.06461e-07
3.22587e-07
3.394e-07
3.55804e-07
3.70875e-07
3.83999e-07
3.94798e-07
4.03101e-07
4.08782e-07
4.11503e-07
4.10411e-07
4.03875e-07
3.89205e-07
3.62702e-07
3.20366e-07
2.60057e-07
1.85616e-07
1.10374e-07
5.22017e-08
1.95511e-08
6.03588e-09
1.65858e-09
4.28736e-10
1.01076e-10
3.14059e-11
3.36761e-11
1.14005e-10
4.53548e-10
1.51311e-09
4.31123e-09
1.00549e-08
2.02976e-08
3.65948e-08
6.02536e-08
9.18801e-08
1.3089e-07
1.75238e-07
2.21648e-07
2.6641e-07
3.06386e-07
3.39703e-07
3.65853e-07
3.85376e-07
3.99346e-07
4.08992e-07
4.15457e-07
4.1968e-07
4.22379e-07
4.2407e-07
4.2511e-07
4.25741e-07
4.26118e-07
4.26341e-07
4.26471e-07
4.26547e-07
4.2659e-07
4.26616e-07
4.26631e-07
4.26639e-07
4.26645e-07
4.26648e-07
4.26653e-07
4.26667e-07
2.89915e-07
2.81487e-07
2.74937e-07
2.69776e-07
2.65791e-07
2.63003e-07
2.61644e-07
2.6211e-07
2.64877e-07
2.70383e-07
2.78879e-07
2.9031e-07
3.04243e-07
3.19894e-07
3.36275e-07
3.52338e-07
3.67166e-07
3.80115e-07
3.90774e-07
3.98855e-07
4.03979e-07
4.05377e-07
4.0155e-07
3.89996e-07
3.67073e-07
3.2864e-07
2.71837e-07
1.98784e-07
1.20844e-07
5.67562e-08
1.92193e-08
4.51651e-09
6.90019e-10
6.55993e-11
6.34689e-12
2.98008e-13
3.34909e-14
4.77141e-14
4.84853e-13
5.77524e-12
5.6305e-11
4.63969e-10
1.96903e-09
5.84269e-09
1.37533e-08
2.75325e-08
4.88452e-08
7.86717e-08
1.16726e-07
1.61075e-07
2.08342e-07
2.54542e-07
2.96198e-07
3.31143e-07
3.5868e-07
3.79266e-07
3.93992e-07
4.0415e-07
4.10947e-07
4.15379e-07
4.18204e-07
4.19969e-07
4.21053e-07
4.21709e-07
4.221e-07
4.22331e-07
4.22465e-07
4.22544e-07
4.22589e-07
4.22616e-07
4.22631e-07
4.2264e-07
4.22646e-07
4.22649e-07
4.22652e-07
2.89914e-07
2.81477e-07
2.74905e-07
2.69705e-07
2.65672e-07
2.62845e-07
2.61477e-07
2.61986e-07
2.6486e-07
2.70523e-07
2.79194e-07
2.90768e-07
3.04771e-07
3.20399e-07
3.36651e-07
3.52509e-07
3.67095e-07
3.7976e-07
3.90054e-07
3.97552e-07
4.01582e-07
4.00879e-07
3.93228e-07
3.75288e-07
3.42912e-07
2.92503e-07
2.23998e-07
1.45237e-07
7.34685e-08
2.6161e-08
5.75765e-09
6.41384e-10
2.39944e-11
6.7283e-13
1e-06
1e-06
1e-06
1e-06
1e-06
1e-06
3.25387e-13
2.34952e-11
2.79019e-10
1.49912e-09
5.01673e-09
1.26487e-08
2.63781e-08
4.79581e-08
7.83649e-08
1.17184e-07
1.62278e-07
2.10067e-07
2.56462e-07
2.97997e-07
3.32585e-07
3.59657e-07
3.79762e-07
3.94054e-07
4.03852e-07
4.10366e-07
4.14587e-07
4.17261e-07
4.18923e-07
4.19938e-07
4.20548e-07
4.2091e-07
4.21122e-07
4.21246e-07
4.21317e-07
4.21358e-07
4.21382e-07
4.21395e-07
4.21403e-07
4.21407e-07
4.21406e-07
2.89913e-07
2.81473e-07
2.74889e-07
2.6967e-07
2.65615e-07
2.62776e-07
2.6143e-07
2.62019e-07
2.65047e-07
2.70935e-07
2.79875e-07
2.91715e-07
3.05926e-07
3.21661e-07
3.37905e-07
3.53643e-07
3.68016e-07
3.80373e-07
3.90203e-07
3.96915e-07
3.99506e-07
3.96187e-07
3.8408e-07
3.59275e-07
3.17664e-07
2.57122e-07
1.81308e-07
1.03319e-07
4.26733e-08
1.09137e-08
1.27701e-09
3.53721e-11
9.38684e-13
1e-06
1e-06
1e-06
1e-06
1e-06
1e-06
1e-06
1e-06
1.2099e-13
8.89358e-12
2.14154e-10
1.4781e-09
5.46852e-09
1.42188e-08
2.97121e-08
5.35324e-08
8.63235e-08
1.2721e-07
1.73595e-07
2.21631e-07
2.67261e-07
3.07303e-07
3.40065e-07
3.6531e-07
3.83806e-07
3.96801e-07
4.05616e-07
4.11422e-07
4.15151e-07
4.17495e-07
4.18939e-07
4.19814e-07
4.20336e-07
4.20644e-07
4.20823e-07
4.20926e-07
4.20985e-07
4.21019e-07
4.21039e-07
4.21049e-07
4.21055e-07
4.21052e-07
2.89913e-07
2.8147e-07
2.7488e-07
2.6965e-07
2.65585e-07
2.62744e-07
2.61421e-07
2.62078e-07
2.65234e-07
2.71312e-07
2.80486e-07
2.92565e-07
3.06975e-07
3.22833e-07
3.39101e-07
3.54762e-07
3.6896e-07
3.81028e-07
3.90375e-07
3.96223e-07
3.97239e-07
3.91155e-07
3.74583e-07
3.43353e-07
2.93867e-07
2.25952e-07
1.46921e-07
7.35199e-08
2.4467e-08
4.19044e-09
1.8241e-10
1.38212e-12
1e-06
1e-06
1e-06
1e-06
1e-06
1e-06
1e-06
1e-06
1e-06
1e-06
4.50307e-13
3.18701e-11
4.66292e-10
2.49858e-09
8.02703e-09
1.9142e-08
3.77463e-08
6.51298e-08
1.01383e-07
1.44927e-07
1.92562e-07
2.402e-07
2.84002e-07
3.21329e-07
3.51096e-07
3.73531e-07
3.89661e-07
4.00811e-07
4.08268e-07
4.1312e-07
4.16201e-07
4.18117e-07
4.19287e-07
4.19989e-07
4.20405e-07
4.20648e-07
4.20788e-07
4.20868e-07
4.20913e-07
4.20939e-07
4.20954e-07
4.20961e-07
4.20958e-07
2.89912e-07
2.81469e-07
2.74875e-07
2.6964e-07
2.65568e-07
2.62728e-07
2.61421e-07
2.62125e-07
2.65369e-07
2.71579e-07
2.80918e-07
2.93171e-07
3.07732e-07
3.23687e-07
3.3998e-07
3.5559e-07
3.69655e-07
3.81477e-07
3.90384e-07
3.95422e-07
3.94973e-07
3.86399e-07
3.6598e-07
3.29529e-07
2.74164e-07
2.01595e-07
1.22039e-07
5.42142e-08
1.4621e-08
1.64024e-09
3.22221e-11
6.68834e-12
1e-06
1e-06
1e-06
1e-06
1e-06
1e-06
1e-06
1e-06
1e-06
1e-06
5.83305e-15
1.85135e-12
1.05469e-10
1.00624e-09
4.37345e-09
1.24143e-08
2.72452e-08
5.04905e-08
8.28243e-08
1.23439e-07
1.69813e-07
2.18126e-07
2.64263e-07
3.04929e-07
3.38313e-07
3.64089e-07
3.82992e-07
3.96271e-07
4.05271e-07
4.1119e-07
4.14985e-07
4.17363e-07
4.18824e-07
4.19707e-07
4.20232e-07
4.20539e-07
4.20717e-07
4.20819e-07
4.20876e-07
4.20909e-07
4.20927e-07
4.20936e-07
4.20934e-07
2.89912e-07
2.81468e-07
2.74873e-07
2.69634e-07
2.65559e-07
2.62719e-07
2.61423e-07
2.62153e-07
2.65448e-07
2.71738e-07
2.81176e-07
2.93537e-07
3.08192e-07
3.2421e-07
3.40522e-07
3.561e-07
3.70074e-07
3.81721e-07
3.903e-07
3.94733e-07
3.93207e-07
3.82851e-07
3.59776e-07
3.19868e-07
2.60838e-07
1.8576e-07
1.06718e-07
4.32656e-08
9.86252e-09
7.90284e-10
1.63782e-11
1e-06
1e-06
1e-06
1e-06
1e-06
1e-06
1e-06
1e-06
1e-06
1e-06
1e-06
3.57515e-16
7.39248e-13
5.2839e-11
5.57647e-10
2.7387e-09
8.72589e-09
2.09292e-08
4.13138e-08
7.09006e-08
1.09311e-07
1.54467e-07
2.02817e-07
2.50188e-07
2.92928e-07
3.28737e-07
3.56872e-07
3.77805e-07
3.92688e-07
4.02877e-07
4.09635e-07
4.13998e-07
4.16749e-07
4.1845e-07
4.19482e-07
4.20097e-07
4.20459e-07
4.2067e-07
4.2079e-07
4.20858e-07
4.20897e-07
4.20918e-07
4.20929e-07
4.20928e-07
2.89912e-07
2.81468e-07
2.74872e-07
2.69632e-07
2.65556e-07
2.62717e-07
2.61425e-07
2.62168e-07
2.65486e-07
2.71812e-07
2.81298e-07
2.93708e-07
3.08408e-07
3.24456e-07
3.40776e-07
3.56337e-07
3.70266e-07
3.81832e-07
3.90267e-07
3.9445e-07
3.925e-07
3.81473e-07
3.57428e-07
3.16284e-07
2.55949e-07
1.7997e-07
1.01105e-07
3.92763e-08
8.31285e-09
6.04217e-10
6.29973e-12
1e-06
1e-06
1e-06
1e-06
1e-06
1e-06
1e-06
1e-06
1e-06
1e-06
1e-06
1e-06
2.38619e-13
2.64461e-11
3.53669e-10
1.99876e-09
7.02859e-09
1.80509e-08
3.7264e-08
6.58142e-08
1.03406e-07
1.48071e-07
1.96355e-07
2.44108e-07
2.8759e-07
3.24342e-07
3.53452e-07
3.75271e-07
3.90886e-07
4.01639e-07
4.08809e-07
4.13461e-07
4.16408e-07
4.18237e-07
4.19352e-07
4.20019e-07
4.20413e-07
4.20643e-07
4.20774e-07
4.20849e-07
4.20892e-07
4.20915e-07
4.20927e-07
4.20927e-07
2.89912e-07
2.81468e-07
2.74873e-07
2.69634e-07
2.6556e-07
2.62722e-07
2.61431e-07
2.62173e-07
2.65491e-07
2.71815e-07
2.81297e-07
2.93705e-07
3.08401e-07
3.24445e-07
3.40761e-07
3.56321e-07
3.70256e-07
3.81848e-07
3.90362e-07
3.94729e-07
3.93148e-07
3.82767e-07
3.59713e-07
3.19863e-07
2.60874e-07
1.85769e-07
1.0666e-07
4.31638e-08
9.85545e-09
8.50016e-10
8.17521e-12
1e-06
1e-06
1e-06
1e-06
1e-06
1e-06
1e-06
1e-06
1e-06
1e-06
1e-06
4.44067e-16
6.67095e-13
4.95883e-11
5.5146e-10
2.71567e-09
8.61283e-09
2.06309e-08
4.07578e-08
7.0018e-08
1.0802e-07
1.52714e-07
2.00633e-07
2.47717e-07
2.90387e-07
3.26344e-07
3.54785e-07
3.761e-07
3.91369e-07
4.01903e-07
4.08943e-07
4.13522e-07
4.16432e-07
4.18244e-07
4.19351e-07
4.20017e-07
4.20411e-07
4.20641e-07
4.20773e-07
4.20849e-07
4.20891e-07
4.20915e-07
4.20927e-07
4.20927e-07
2.89912e-07
2.81469e-07
2.74875e-07
2.6964e-07
2.65569e-07
2.62733e-07
2.61438e-07
2.62165e-07
2.65453e-07
2.71729e-07
2.81151e-07
2.93493e-07
3.08132e-07
3.24137e-07
3.40439e-07
3.56015e-07
3.70007e-07
3.81728e-07
3.90516e-07
3.95432e-07
3.94877e-07
3.86246e-07
3.65852e-07
3.29501e-07
2.74228e-07
2.01629e-07
1.21944e-07
5.40388e-08
1.45796e-08
1.73348e-09
3.48308e-11
6.66739e-12
1e-06
1e-06
1e-06
1e-06
1e-06
1e-06
1e-06
1e-06
1e-06
1e-06
5.18313e-15
1.55642e-12
9.60602e-11
9.69539e-10
4.27173e-09
1.21565e-08
2.6708e-08
4.9515e-08
8.12003e-08
1.20956e-07
1.6638e-07
2.13867e-07
2.59516e-07
3.00137e-07
3.33876e-07
3.60275e-07
3.79911e-07
3.93908e-07
4.03537e-07
4.09965e-07
4.14146e-07
4.16805e-07
4.18463e-07
4.19478e-07
4.2009e-07
4.20453e-07
4.20665e-07
4.20788e-07
4.20858e-07
4.20898e-07
4.2092e-07
4.20932e-07
4.20931e-07
2.89913e-07
2.8147e-07
2.7488e-07
2.69651e-07
2.65587e-07
2.62752e-07
2.61446e-07
2.62139e-07
2.65358e-07
2.71531e-07
2.80824e-07
2.93032e-07
3.07554e-07
3.23483e-07
3.39763e-07
3.55376e-07
3.69473e-07
3.81401e-07
3.90585e-07
3.96266e-07
3.97133e-07
3.90959e-07
3.74402e-07
3.43303e-07
2.93979e-07
2.26075e-07
1.46832e-07
7.32439e-08
2.44062e-08
4.43649e-09
3.65724e-10
2.17028e-12
1e-06
1e-06
1e-06
1e-06
1e-06
1e-06
1e-06
1e-06
1e-06
1e-06
4.23185e-13
3.04584e-11
4.44345e-10
2.41326e-09
7.82026e-09
1.87216e-08
3.69311e-08
6.36166e-08
9.88039e-08
1.41005e-07
1.87283e-07
2.33888e-07
2.77228e-07
3.1472e-07
3.45151e-07
3.68538e-07
3.857e-07
3.97815e-07
4.06093e-07
4.11594e-07
4.15162e-07
4.17429e-07
4.18841e-07
4.19706e-07
4.20228e-07
4.20539e-07
4.20721e-07
4.20826e-07
4.20887e-07
4.20921e-07
4.2094e-07
4.2095e-07
4.20949e-07
2.89913e-07
2.81473e-07
2.74889e-07
2.6967e-07
2.65618e-07
2.62787e-07
2.61464e-07
2.621e-07
2.6521e-07
2.7122e-07
2.80313e-07
2.92314e-07
3.06664e-07
3.22486e-07
3.38742e-07
3.54416e-07
3.68661e-07
3.80845e-07
3.90479e-07
3.9699e-07
3.99399e-07
3.95957e-07
3.83843e-07
3.59188e-07
3.17824e-07
2.5742e-07
1.81419e-07
1.03077e-07
4.24663e-08
1.10526e-08
1.46091e-09
4.11471e-11
9.34525e-13
1e-06
1e-06
1e-06
1e-06
1e-06
1e-06
1e-06
1e-06
1.16073e-13
1.0781e-11
2.31676e-10
1.49928e-09
5.41631e-09
1.39688e-08
2.90645e-08
5.21466e-08
8.37398e-08
1.23006e-07
1.6761e-07
2.14112e-07
2.5883e-07
2.98747e-07
3.32098e-07
3.5841e-07
3.78181e-07
3.92441e-07
4.02377e-07
4.091e-07
4.13537e-07
4.16401e-07
4.18214e-07
4.19341e-07
4.20031e-07
4.20447e-07
4.20695e-07
4.20841e-07
4.20925e-07
4.20974e-07
4.21001e-07
4.21017e-07
4.21025e-07
4.21023e-07
2.89914e-07
2.81477e-07
2.74905e-07
2.69706e-07
2.65676e-07
2.62859e-07
2.61519e-07
2.62086e-07
2.65058e-07
2.70865e-07
2.79713e-07
2.9147e-07
3.05626e-07
3.21341e-07
3.37593e-07
3.53364e-07
3.67791e-07
3.80254e-07
3.90328e-07
3.97606e-07
4.01437e-07
4.00589e-07
3.92906e-07
3.75111e-07
3.43055e-07
2.92979e-07
2.24522e-07
1.45439e-07
7.34417e-08
2.63475e-08
6.16548e-09
7.79821e-10
2.86778e-11
4.21189e-13
1e-06
1e-06
1e-06
1e-06
1e-06
1e-06
3.26296e-13
2.28413e-11
2.7972e-10
1.45893e-09
4.85364e-09
1.22292e-08
2.54842e-08
4.6227e-08
7.52907e-08
1.12261e-07
1.55247e-07
2.01119e-07
2.4625e-07
2.87435e-07
3.22561e-07
3.50814e-07
3.72424e-07
3.88268e-07
3.99478e-07
4.07175e-07
4.12325e-07
4.15696e-07
4.17858e-07
4.1922e-07
4.20065e-07
4.20581e-07
4.20892e-07
4.21076e-07
4.21185e-07
4.21248e-07
4.21285e-07
4.21306e-07
4.21318e-07
4.21323e-07
4.2132e-07
2.89915e-07
2.81487e-07
2.74937e-07
2.69777e-07
2.65795e-07
2.63021e-07
2.61695e-07
2.62227e-07
2.65105e-07
2.70767e-07
2.79449e-07
2.91062e-07
3.05133e-07
3.20841e-07
3.37182e-07
3.53114e-07
3.67745e-07
3.80464e-07
3.90891e-07
3.98751e-07
4.03681e-07
4.04935e-07
4.01061e-07
3.89632e-07
3.67057e-07
3.29138e-07
2.72763e-07
1.99766e-07
1.21587e-07
5.74081e-08
1.98869e-08
4.90343e-09
7.60241e-10
6.0492e-11
5.31892e-12
2.81711e-13
3.4541e-14
4.89927e-14
4.8678e-13
5.75133e-12
6.29709e-11
4.8461e-10
1.98608e-09
5.73889e-09
1.32988e-08
2.63762e-08
4.6512e-08
7.4596e-08
1.10389e-07
1.52245e-07
1.97279e-07
2.42016e-07
2.83272e-07
3.18852e-07
3.47786e-07
3.70162e-07
3.86748e-07
3.98612e-07
4.06848e-07
4.12421e-07
4.16108e-07
4.18499e-07
4.20022e-07
4.20976e-07
4.21566e-07
4.21924e-07
4.2214e-07
4.22268e-07
4.22344e-07
4.22388e-07
4.22413e-07
4.22427e-07
4.22436e-07
4.2244e-07
4.22436e-07
2.89918e-07
2.81508e-07
2.75006e-07
2.69927e-07
2.66054e-07
2.63406e-07
2.62223e-07
2.62917e-07
2.65986e-07
2.71882e-07
2.80852e-07
2.92806e-07
3.07261e-07
3.23365e-07
3.40053e-07
3.5625e-07
3.71071e-07
3.8394e-07
3.94507e-07
4.02613e-07
4.08137e-07
4.10748e-07
4.09623e-07
4.03191e-07
3.88848e-07
3.62934e-07
3.21355e-07
2.61701e-07
1.87553e-07
1.12276e-07
5.38463e-08
2.06278e-08
6.53265e-09
1.7222e-09
4.49844e-10
1.04751e-10
3.29065e-11
3.52169e-11
1.17103e-10
4.59187e-10
1.52948e-09
4.19137e-09
9.61202e-09
1.9191e-08
3.43454e-08
5.62741e-08
8.55673e-08
1.218e-07
1.63317e-07
2.0739e-07
2.50809e-07
2.90669e-07
3.24992e-07
3.52932e-07
3.74618e-07
3.90772e-07
4.02396e-07
4.1052e-07
4.16056e-07
4.19746e-07
4.22158e-07
4.23707e-07
4.24686e-07
4.25295e-07
4.25669e-07
4.25895e-07
4.2603e-07
4.2611e-07
4.26157e-07
4.26184e-07
4.262e-07
4.26209e-07
4.26214e-07
4.26217e-07
4.26216e-07
2.89926e-07
2.81559e-07
2.75165e-07
2.70259e-07
2.66644e-07
2.64388e-07
2.63794e-07
2.65336e-07
2.69547e-07
2.76857e-07
2.87424e-07
3.01037e-07
3.17057e-07
3.3449e-07
3.52144e-07
3.68892e-07
3.83912e-07
3.96689e-07
4.06959e-07
4.14726e-07
4.2009e-07
4.23049e-07
4.23288e-07
4.19971e-07
4.11551e-07
3.95391e-07
3.67958e-07
3.25455e-07
2.66022e-07
1.93868e-07
1.21911e-07
6.57986e-08
3.18659e-08
1.47323e-08
7.18022e-09
3.9226e-09
2.8381e-09
3.09892e-09
4.59474e-09
7.89538e-09
1.391e-08
2.37286e-08
3.84197e-08
5.88578e-08
8.55385e-08
1.18364e-07
1.56411e-07
1.97845e-07
2.40141e-07
2.80603e-07
3.16961e-07
3.47797e-07
3.72647e-07
3.91813e-07
4.06051e-07
4.16293e-07
4.23462e-07
4.28359e-07
4.31633e-07
4.33781e-07
4.35165e-07
4.36042e-07
4.36589e-07
4.36925e-07
4.37128e-07
4.37249e-07
4.3732e-07
4.37362e-07
4.37385e-07
4.37398e-07
4.37406e-07
4.3741e-07
4.37412e-07
4.37416e-07
4.37423e-07
2.89952e-07
2.817e-07
2.75542e-07
2.71049e-07
2.68181e-07
2.67182e-07
2.68529e-07
2.72814e-07
2.80621e-07
2.92256e-07
3.0751e-07
3.25672e-07
3.45614e-07
3.65959e-07
3.85367e-07
4.02803e-07
4.17706e-07
4.29698e-07
4.38841e-07
4.45418e-07
4.49757e-07
4.52096e-07
4.52453e-07
4.50503e-07
4.45406e-07
4.35647e-07
4.18885e-07
3.92018e-07
3.51808e-07
2.96791e-07
2.3055e-07
1.63523e-07
1.08341e-07
7.06614e-08
4.84637e-08
3.73176e-08
3.43223e-08
3.72991e-08
4.46929e-08
5.70106e-08
7.45482e-08
9.72657e-08
1.25026e-07
1.57353e-07
1.93377e-07
2.31766e-07
2.70743e-07
3.08316e-07
3.42646e-07
3.72407e-07
3.96969e-07
4.16362e-07
4.31096e-07
4.41925e-07
4.49652e-07
4.55027e-07
4.58679e-07
4.61109e-07
4.62693e-07
4.63706e-07
4.64341e-07
4.64731e-07
4.64966e-07
4.65104e-07
4.65183e-07
4.65226e-07
4.65249e-07
4.6526e-07
4.65265e-07
4.65267e-07
4.65267e-07
4.65267e-07
4.65268e-07
4.65277e-07
4.65309e-07
2.90041e-07
2.8207e-07
2.76549e-07
2.73357e-07
2.7285e-07
2.75637e-07
2.82604e-07
2.9436e-07
3.11188e-07
3.3266e-07
3.57518e-07
3.83934e-07
4.09946e-07
4.3387e-07
4.54587e-07
4.71659e-07
4.84958e-07
4.94797e-07
5.01763e-07
5.06442e-07
5.09327e-07
5.10764e-07
5.10918e-07
5.09719e-07
5.06767e-07
5.0127e-07
4.9195e-07
4.76974e-07
4.54041e-07
4.20905e-07
3.76732e-07
3.24193e-07
2.705e-07
2.24527e-07
1.92211e-07
1.75952e-07
1.755e-07
1.85865e-07
2.02461e-07
2.24378e-07
2.50262e-07
2.78669e-07
3.08539e-07
3.38946e-07
3.68958e-07
3.97538e-07
4.23658e-07
4.46496e-07
4.65589e-07
4.8088e-07
4.9265e-07
5.01391e-07
5.07683e-07
5.12082e-07
5.15072e-07
5.17049e-07
5.18322e-07
5.19116e-07
5.19595e-07
5.19872e-07
5.20022e-07
5.20096e-07
5.20127e-07
5.20133e-07
5.20127e-07
5.20116e-07
5.20104e-07
5.20092e-07
5.20082e-07
5.20073e-07
5.20067e-07
5.20065e-07
5.2007e-07
5.20096e-07
5.20186e-07
2.9033e-07
2.83192e-07
2.79982e-07
2.81314e-07
2.88152e-07
3.00828e-07
3.2059e-07
3.47757e-07
3.81046e-07
4.1773e-07
4.54418e-07
4.88127e-07
5.16968e-07
5.4025e-07
5.58209e-07
5.71509e-07
5.81009e-07
5.87736e-07
5.92523e-07
5.9601e-07
5.98668e-07
6.00816e-07
6.02638e-07
6.04176e-07
6.05289e-07
6.05643e-07
6.04666e-07
6.01527e-07
5.95149e-07
5.84356e-07
5.68312e-07
5.4736e-07
5.23998e-07
5.02985e-07
4.89805e-07
4.88465e-07
4.98802e-07
5.11549e-07
5.2466e-07
5.36939e-07
5.47634e-07
5.56616e-07
5.64252e-07
5.71006e-07
5.77149e-07
5.82685e-07
5.87508e-07
5.91503e-07
5.94619e-07
5.9689e-07
5.9842e-07
5.99356e-07
5.99853e-07
6.00045e-07
6.00038e-07
5.99915e-07
5.99734e-07
5.99536e-07
5.99342e-07
5.99166e-07
5.99014e-07
5.98887e-07
5.98783e-07
5.987e-07
5.98634e-07
5.98583e-07
5.98543e-07
5.98513e-07
5.9849e-07
5.98473e-07
5.98463e-07
5.98462e-07
5.98482e-07
5.98554e-07
5.98761e-07
2.91408e-07
2.88078e-07
2.94293e-07
3.07821e-07
3.27792e-07
3.56053e-07
3.93276e-07
4.37392e-07
4.83948e-07
5.27996e-07
5.65954e-07
5.96342e-07
6.19407e-07
6.36318e-07
6.48511e-07
6.57325e-07
6.63952e-07
6.69306e-07
6.74072e-07
6.78771e-07
6.83811e-07
6.89528e-07
6.96202e-07
7.04057e-07
7.13244e-07
7.2383e-07
7.35777e-07
7.48938e-07
7.63042e-07
7.77732e-07
7.92696e-07
8.07905e-07
8.23868e-07
8.41462e-07
8.61375e-07
8.82028e-07
8.96186e-07
8.99522e-07
8.91663e-07
8.74117e-07
8.49547e-07
8.21436e-07
7.9323e-07
7.67515e-07
7.45543e-07
7.27619e-07
7.13451e-07
7.0246e-07
6.9401e-07
6.8753e-07
6.82559e-07
6.78742e-07
6.7581e-07
6.73558e-07
6.71829e-07
6.70504e-07
6.69492e-07
6.68721e-07
6.68137e-07
6.67697e-07
6.67366e-07
6.67119e-07
6.66935e-07
6.66798e-07
6.66698e-07
6.66624e-07
6.66569e-07
6.6653e-07
6.66501e-07
6.66482e-07
6.66474e-07
6.66484e-07
6.66536e-07
6.66687e-07
6.67056e-07
)
;

boundaryField
{
    ibCylinder
    {
        type            immersedBoundaryNutWallFunction;
        patchType       immersedBoundary;
        blending        stepwise;
        value           nonuniform List<scalar> 0();
    }
    in
    {
        type            zeroGradient;
    }
    out
    {
        type            zeroGradient;
    }
    top
    {
        type            zeroGradient;
    }
    bottom
    {
        type            zeroGradient;
    }
    frontAndBack
    {
        type            empty;
    }
}


// ************************************************************************* //
