/*--------------------------------*- C++ -*----------------------------------*\
| =========                 |                                                 |
| \\      /  F ield         | OpenFOAM: The Open Source CFD Toolbox           |
|  \\    /   O peration     | Version:  2206                                  |
|   \\  /    A nd           | Website:  www.openfoam.com                      |
|    \\/     M anipulation  |                                                 |
\*---------------------------------------------------------------------------*/
FoamFile
{
    version     2.0;
    format      ascii;
    arch        "LSB;label=32;scalar=64";
    class       volScalarField;
    location    "0.5";
    object      omega;
}
// * * * * * * * * * * * * * * * * * * * * * * * * * * * * * * * * * * * * * //

dimensions      [0 0 -1 0 0 0 0];

internalField   nonuniform List<scalar> 
1875
(
293.474
184.574
128.044
95.0131
74.1596
60.4326
51.1234
44.6917
40.2213
37.1258
35.0044
33.5729
32.6267
32.0176
31.6407
31.4227
31.3146
31.2855
31.3161
31.3966
31.5234
31.6985
31.9286
32.2251
32.6044
33.0881
33.7045
34.4883
35.4798
36.7197
38.2376
40.0296
42.0272
44.07
45.9289
47.3445
48.0447
47.9798
47.1486
45.6575
43.6998
41.5273
39.3853
37.4565
35.8326
34.5348
33.5379
32.7936
32.2482
31.8528
31.5677
31.3626
31.215
31.1084
31.0313
30.9754
30.9347
30.905
30.8834
30.8677
30.8562
30.8478
30.8417
30.8373
30.8341
30.8318
30.8301
30.8289
30.828
30.8274
30.8269
30.8263
30.8253
30.8229
30.8182
293.239
189.679
135.117
102.36
81.0962
66.4229
55.9719
48.395
42.8598
38.8219
35.9005
33.8138
32.3466
31.3328
30.6457
30.1892
29.892
29.7057
29.5966
29.5419
29.527
29.5439
29.5898
29.6671
29.7831
29.9524
30.1999
30.5648
31.1063
31.907
33.0667
34.669
36.7029
38.9683
41.0818
42.6014
43.3236
43.5321
43.2344
42.413
41.1224
39.4927
37.7031
35.9382
34.3462
33.0118
31.9592
31.1683
30.5953
30.1908
29.9098
29.7162
29.5832
29.4917
29.4283
29.3839
29.3526
29.3302
29.3142
29.3025
29.294
29.2877
29.2831
29.2797
29.2771
29.2753
29.2739
29.2728
29.2721
29.2715
29.271
29.2705
29.2694
29.2658
29.2507
293.164
189.994
136.854
105.131
84.3017
69.7441
59.1491
51.209
45.1601
40.5251
36.9806
34.2921
32.2789
30.7951
29.7208
28.958
28.425
28.0573
27.8067
27.6374
27.5238
27.449
27.4039
27.3877
27.4085
27.4887
27.6732
28.0438
28.7411
29.992
32.1238
35.5007
40.2768
45.9911
51.5061
55.2057
55.9033
54.8358
53.0033
50.5079
47.5701
44.4136
41.2569
38.2852
35.6476
33.4381
31.6849
30.3604
29.4011
28.7302
28.2738
27.9701
27.7713
27.6426
27.5597
27.5064
27.4721
27.4497
27.435
27.4252
27.4185
27.4139
27.4107
27.4084
27.4067
27.4054
27.4045
27.4039
27.4033
27.403
27.4027
27.4023
27.4016
27.3987
27.3861
293.088
189.325
136.376
105.218
84.9397
70.7817
60.3945
52.5034
46.3789
41.571
37.7778
34.7927
32.4657
30.6772
29.3259
28.3245
27.5985
27.0817
26.7204
26.4714
26.3024
26.191
26.1256
26.1075
26.1549
26.3147
26.6812
27.4356
28.9122
31.7049
36.7877
45.4684
58.7478
75.8331
93.9262
108.047
111.062
104.76
95.6369
85.0236
74.4379
64.6894
56.1823
49.0093
43.129
38.4449
34.828
32.1241
30.1659
28.7891
27.8464
27.2161
26.8034
26.5381
26.3701
26.265
26.1999
26.16
26.1355
26.1205
26.1113
26.1056
26.102
26.0997
26.0982
26.0972
26.0966
26.0961
26.0957
26.0955
26.0953
26.095
26.0945
26.0923
26.0818
293.045
188.858
135.601
104.47
84.4175
70.5368
60.3993
52.7005
46.6941
41.9269
38.1099
35.0542
32.6247
30.7171
29.2423
28.123
27.2915
26.6881
26.2606
25.9654
25.7686
25.6474
25.5927
25.6153
25.7591
26.1149
26.8727
28.407
31.4507
37.4254
48.9738
70.3218
106.234
157.598
220.473
287.184
318.613
290.306
240.668
190.19
148.275
115.469
91.0603
73.0049
59.653
49.7806
42.5174
37.2323
33.4454
30.7811
28.9431
27.6998
26.8749
26.3375
25.9935
25.7767
25.6421
25.5596
25.5096
25.4795
25.4616
25.451
25.4447
25.4409
25.4387
25.4373
25.4365
25.4359
25.4356
25.4353
25.4351
25.435
25.4345
25.4326
25.4228
293.024
188.607
135.062
103.763
83.6853
69.8805
59.8713
52.3145
46.437
41.7728
38.0308
35.0202
32.6086
30.6957
29.201
28.0541
27.1921
26.5597
26.1081
25.7967
25.5939
25.4814
25.4591
25.558
25.8586
26.5327
27.9292
30.7584
36.5001
48.3247
73.0376
123.957
224.037
401.049
677.526
1139.32
1615.56
1473.11
961.099
582.52
366.566
234.037
160.535
115.849
87.1694
67.9754
54.763
45.5274
39.0437
34.5098
31.3704
29.2259
27.7833
26.8286
26.208
25.8113
25.5617
25.4069
25.3123
25.2553
25.2212
25.2011
25.1893
25.1824
25.1783
25.176
25.1745
25.1737
25.1732
25.1729
25.1726
25.1724
25.172
25.1702
25.1606
293.013
188.478
134.753
103.295
83.1172
69.2767
59.2846
51.7812
45.9769
41.393
37.7288
34.7872
32.4321
30.5625
29.0993
27.9736
27.1245
26.4989
26.0512
25.744
25.5508
25.4613
25.4918
25.7045
26.2365
27.375
29.7089
34.4891
44.5355
66.6458
118.272
244.87
580.416
1512.26
3664.35
10887.6
24304.4
20097.4
8017.82
3011.75
1304.22
550.917
298.559
185.511
126.473
92.0245
70.3381
55.9791
46.1816
39.4027
34.7016
31.4605
29.2509
27.766
26.7842
26.1461
25.7383
25.482
25.3234
25.2267
25.1686
25.1341
25.1138
25.1019
25.095
25.091
25.0887
25.0874
25.0866
25.0861
25.0858
25.0855
25.0851
25.0833
25.0737
293.008
188.412
134.58
103.013
82.7466
68.8469
58.8267
51.3235
45.5426
40.9991
37.3856
34.4989
32.1981
30.3789
28.9587
27.8678
27.0458
26.4408
26.0092
25.7172
25.5445
25.4925
25.599
25.9642
26.8028
28.5548
32.1467
39.6677
56.2992
96.4607
207.276
579.667
2444.37
15099.4
500
500
500
500
500
500
9738.45
1425.59
572.996
292.447
178.046
120.552
87.7684
67.3859
53.9606
44.8106
38.4737
34.072
31.0328
28.9588
27.5648
26.6441
26.0465
25.6655
25.4266
25.2792
25.1897
25.1361
25.1044
25.0858
25.0751
25.0689
25.0653
25.0632
25.0621
25.0614
25.0609
25.0606
25.0602
25.0584
25.0488
293.005
188.375
134.481
102.845
82.5168
68.5677
58.5141
50.9944
45.2136
40.6849
37.0977
34.2453
31.9829
30.2027
28.819
27.7604
26.9654
26.3824
25.9694
25.6962
25.5495
25.5443
25.7431
26.2927
27.4971
29.9854
35.1375
46.3002
72.7583
145.488
410.617
2064.64
28527.8
500
500
500
500
500
500
500
500
11293.5
2023.79
615.163
278.937
161.5
108.326
79.5139
61.8921
50.2872
42.337
36.8011
32.9412
30.2714
28.4499
27.2278
26.4227
25.9021
25.5716
25.3654
25.2389
25.1626
25.1171
25.0904
25.0748
25.0659
25.0608
25.0579
25.0562
25.0553
25.0547
25.0543
25.0538
25.052
25.0424
293.003
188.353
134.422
102.744
82.3756
68.3925
58.313
50.7767
44.9894
40.4641
36.8893
34.0564
31.818
30.064
28.7062
27.6714
26.8975
26.3325
25.9359
25.6808
25.5613
25.6065
25.9048
26.6508
28.245
31.5333
38.4646
54.1694
94.7562
227.638
990.475
11245.3
500
500
500
500
500
500
500
500
500
500
4424.05
1021.03
385.439
201.6
127.608
90.6464
69.1542
55.3558
45.9776
39.428
34.8191
31.5914
29.3587
27.8396
26.8252
26.161
25.7343
25.4655
25.299
25.1977
25.1371
25.1012
25.0803
25.0683
25.0614
25.0575
25.0553
25.0541
25.0534
25.0529
25.0524
25.0505
25.0409
293.002
188.34
134.387
102.684
82.2909
68.2866
58.19
50.6417
44.8482
40.3227
36.7535
33.9311
31.7068
29.9688
28.6275
27.6084
26.8488
26.2967
25.9124
25.6723
25.5773
25.669
26.0593
26.9869
28.9445
32.9997
41.735
62.5161
121.244
348.185
2208.53
115049
500
500
500
500
500
500
500
500
500
500
20923.6
2474.11
636.711
274.98
155.675
103.845
76.5748
60.1193
49.2795
41.7915
36.518
32.7992
30.2014
28.4148
27.2089
26.411
25.8937
25.5649
25.3597
25.234
25.1583
25.1134
25.0871
25.0719
25.0632
25.0583
25.0556
25.054
25.0532
25.0527
25.0521
25.0502
25.0406
293.002
188.334
134.369
102.652
82.2454
68.2294
58.1234
50.5682
44.7707
40.2445
36.6778
33.8607
31.6439
29.9147
28.5826
27.5726
26.8212
26.2767
25.9001
25.67
25.5923
25.718
26.1757
27.2378
29.47
34.1242
44.349
69.7497
146.746
478.19
3841.4
500
500
500
500
500
500
500
500
500
500
500
114608
1897.8
568.847
295.185
175.107
115.345
83.151
64.1243
51.9108
43.6146
37.8114
33.7183
30.8469
28.8598
27.509
26.609
26.0214
25.6455
25.4096
25.2643
25.1763
25.1239
25.0931
25.0752
25.0651
25.0593
25.0561
25.0543
25.0533
25.0526
25.052
25.0502
25.0406
293.001
188.331
134.363
102.641
82.2308
68.2111
58.1021
50.5447
44.746
40.2197
36.654
33.839
31.6252
29.8993
28.5708
27.564
26.8156
26.2735
25.8992
25.6724
25.601
25.7394
26.2231
27.3382
29.6838
34.6021
45.5457
73.4607
160.429
541.226
4806.17
500
500
500
500
500
500
500
500
500
500
500
500
2360.55
613.866
330.367
196.115
126
88.4058
66.8354
53.4322
44.5497
38.4292
34.1438
31.1445
29.0675
27.6522
26.706
26.0859
25.6875
25.4365
25.2812
25.1867
25.1302
25.0969
25.0775
25.0664
25.06
25.0565
25.0545
25.0534
25.0527
25.0521
25.0502
25.0406
293.002
188.334
134.369
102.652
82.2455
68.2294
58.1235
50.5684
44.7713
40.2459
36.6802
33.8645
31.6494
29.9219
28.5914
27.5824
26.8315
26.2866
25.9092
25.6783
25.5999
25.7252
26.1837
27.2492
29.4934
34.1837
44.5112
70.2981
148.721
477.531
3841.4
500
500
500
500
500
500
500
500
500
500
500
114608
1897.8
569.879
289.938
173.735
115.636
83.6876
64.5433
52.2025
43.8281
37.9819
33.8614
30.9677
28.9594
27.5884
26.6699
26.0666
25.6779
25.4322
25.2797
25.1865
25.1305
25.0974
25.078
25.0668
25.0604
25.0567
25.0547
25.0535
25.0528
25.0522
25.0502
25.0406
293.002
188.34
134.387
102.684
82.291
68.2866
58.1902
50.6422
44.8494
40.3253
36.758
33.9382
31.7171
29.9822
28.6437
27.6266
26.8678
26.3152
25.9295
25.6876
25.5908
25.6814
26.072
27.0045
28.9809
33.0938
41.9927
63.3004
123.683
346.379
2208.53
115049
500
500
500
500
500
500
500
500
500
500
20923.6
2596.32
654.399
276.505
156.557
104.729
77.2595
60.6157
49.6623
42.1142
36.8035
33.0516
30.4183
28.5941
27.3511
26.5195
25.9736
25.6219
25.3993
25.2609
25.1761
25.1249
25.0945
25.0766
25.0662
25.0602
25.0567
25.0548
25.0536
25.0529
25.0522
25.0503
25.0407
293.003
188.353
134.422
102.744
82.3757
68.3927
58.3133
50.7774
44.9911
40.4676
36.8955
34.0662
31.8322
30.0825
28.7285
27.6965
26.9237
26.3581
25.9594
25.7013
25.5788
25.6214
25.9186
26.6683
28.2803
31.6284
38.739
54.9789
96.8857
226.144
977.654
11245.3
500
500
500
500
500
500
500
500
500
500
4424.05
1017.1
390.134
204.314
129.133
91.5591
69.7746
55.8512
46.4219
39.8427
35.2012
31.9308
29.6472
28.0744
27.0086
26.299
25.8348
25.5365
25.3479
25.2306
25.1587
25.1153
25.0893
25.0739
25.0649
25.0596
25.0566
25.0548
25.0538
25.0531
25.0524
25.0505
25.0408
293.005
188.375
134.481
102.845
82.5169
68.5679
58.5145
50.9953
45.2157
40.6891
37.1052
34.2573
32.0001
30.2253
28.8464
27.791
26.9973
26.4134
25.9976
25.7204
25.5691
25.5595
25.7551
26.3048
27.5202
30.0531
35.3482
46.9339
74.4969
148.835
407.715
2064.64
28527.8
500
500
500
500
500
500
500
500
11293.5
1747.84
566.137
271.045
160.826
108.814
80.1166
62.4813
50.8629
42.8954
37.3262
33.4146
30.6793
28.7864
27.4943
26.6261
26.0522
25.679
25.4402
25.2898
25.1963
25.1391
25.1043
25.0835
25.0712
25.0638
25.0595
25.057
25.0555
25.0546
25.054
25.0533
25.0514
25.0418
293.008
188.412
134.58
103.013
82.7468
68.8471
58.8272
51.3246
45.545
41.004
37.3944
34.5129
32.2183
30.4053
28.9903
27.903
27.0821
26.4756
26.0404
25.7432
25.5644
25.5061
25.6069
25.9682
26.809
28.5834
32.2584
40.0265
57.2886
98.5342
205.505
575.04
2444.37
15099.4
500
500
500
500
500
500
9738.45
1425.59
561.206
294.125
180.372
122.306
89.0475
68.401
54.8423
45.6107
39.1996
34.7145
31.582
29.4109
27.9235
26.9188
26.2502
25.812
25.529
25.349
25.236
25.166
25.1231
25.0971
25.0814
25.072
25.0665
25.0631
25.0611
25.0599
25.0592
25.0587
25.0581
25.0562
25.0465
293.013
188.478
134.753
103.295
83.1173
69.277
59.2852
51.7825
45.9799
41.3991
37.7396
34.8041
32.456
30.5932
29.1354
28.0129
27.1641
26.536
26.0835
25.7697
25.5687
25.4711
25.4936
25.6988
26.2256
27.3671
29.7309
34.6131
44.9187
67.4682
118.834
241.566
578.747
1668.52
3664.35
10887.6
24304.4
20097.4
8017.82
3011.75
1201.66
527.126
292.154
185.04
127.592
93.4385
71.6946
57.211
47.2863
40.3802
35.5473
32.1712
29.8291
28.221
27.1309
26.4021
25.9217
25.6096
25.4096
25.2831
25.204
25.1551
25.1252
25.107
25.096
25.0894
25.0854
25.083
25.0815
25.0806
25.08
25.0796
25.079
25.0772
25.0674
293.024
188.607
135.063
103.764
83.6855
69.8809
59.872
52.3164
46.4414
41.7814
38.0453
35.042
32.6381
30.7321
29.2422
28.0971
27.2337
26.5968
26.1386
25.8187
25.6064
25.484
25.4518
25.541
25.8317
26.4967
27.89
30.7337
36.5251
48.4096
72.9387
122.816
220.041
410.926
680.386
1143.3
1616.16
1473.56
960.26
581.031
362.188
236.734
163.523
118.522
89.458
69.9304
56.4442
46.9772
40.2852
35.5553
32.23
29.913
28.3165
27.2298
26.5008
26.0185
25.7035
25.5004
25.3711
25.2896
25.2389
25.2076
25.1884
25.1766
25.1695
25.1652
25.1625
25.1609
25.1599
25.1593
25.1588
25.1585
25.158
25.1561
25.1463
293.045
188.858
135.601
104.47
84.4176
70.5372
60.4005
52.7036
46.7009
41.9396
38.1302
35.083
32.6616
30.7601
29.2883
28.1681
27.3321
26.7214
26.2846
25.9787
25.7706
25.6382
25.5726
25.5843
25.7165
26.0587
26.7994
28.3111
31.3192
37.2106
48.5135
69.2258
103.656
155.343
217.512
281.741
311.617
286.803
241.309
192.684
151.1
118.475
93.8236
75.4487
61.7875
51.634
44.1131
38.5862
34.5708
31.693
29.6613
28.2488
27.2815
26.629
26.195
25.9101
25.7256
25.6073
25.5324
25.4853
25.456
25.4378
25.4266
25.4197
25.4155
25.4129
25.4112
25.4102
25.4095
25.4091
25.4088
25.4085
25.408
25.406
25.396
293.088
189.325
136.376
105.218
84.9398
70.7823
60.3963
52.5082
46.389
41.5888
37.8048
34.8289
32.5092
30.7245
29.3727
28.3665
27.6319
27.1048
26.7315
26.4702
26.289
26.1661
26.09
26.0613
26.0976
26.2439
26.5917
27.3167
28.7419
31.4346
36.3105
44.5871
57.1577
73.5971
91.1091
104.65
107.927
102.91
95.0143
85.3865
75.4502
66.0748
57.7182
50.5519
44.5885
39.7662
35.9793
33.0916
30.9505
29.403
28.3098
27.553
27.0384
26.694
26.4666
26.3181
26.2223
26.161
26.122
26.0973
26.0818
26.072
26.0658
26.0618
26.0593
26.0577
26.0566
26.0558
26.0553
26.055
26.0547
26.0545
26.0539
26.0516
26.0409
293.164
189.994
136.854
105.131
84.3018
69.7448
59.1517
51.2157
45.1736
40.5474
37.0121
34.3309
32.3214
30.8367
29.7568
28.9847
28.4404
28.0604
27.7974
27.6162
27.4918
27.4071
27.3531
27.3284
27.3401
27.4093
27.5784
27.9251
28.5818
29.761
31.7642
34.9251
39.3848
44.7642
50.0292
53.6645
54.6144
53.9865
52.5845
50.4973
47.9006
44.9927
41.987
39.0781
36.4307
34.1577
32.3075
30.8707
29.7988
29.025
28.4808
28.106
27.8521
27.6824
27.5698
27.4955
27.4467
27.4147
27.3936
27.3796
27.3703
27.364
27.3597
27.3568
27.3547
27.3533
27.3522
27.3515
27.3509
27.3505
27.3501
27.3497
27.3489
27.3459
27.3337
293.239
189.679
135.117
102.36
81.0964
66.4241
55.9757
48.4035
42.8745
38.843
35.9258
33.8398
32.3691
31.348
30.6509
30.1833
29.8749
29.678
29.5592
29.496
29.4739
29.4845
29.5247
29.5963
29.7062
29.8679
30.1045
30.453
30.9683
31.7269
32.82
34.3246
36.2343
38.3798
40.4226
41.9602
42.7948
43.1541
43.0145
42.3536
41.2107
39.6997
37.9888
36.2588
34.6622
33.2937
32.19
31.3422
30.7149
30.2631
29.9437
29.7205
29.5658
29.4587
29.3844
29.3327
29.2965
29.271
29.253
29.24
29.2308
29.224
29.2191
29.2156
29.2129
29.211
29.2096
29.2085
29.2077
29.2071
29.2066
29.2059
29.2044
29.1998
29.1844
293.474
184.574
128.044
95.0138
74.1616
60.4375
51.1326
44.7061
40.2397
37.1453
35.0213
33.5836
32.6284
32.0089
31.6215
31.3935
31.2766
31.2398
31.264
31.339
31.4612
31.6321
31.8582
32.1506
32.5249
33.0024
33.6101
34.3815
35.3551
36.5695
38.0525
39.801
41.7527
43.7612
45.6137
47.0602
47.8213
47.8294
47.0756
45.6596
43.7657
41.6376
39.5167
37.5869
35.9454
34.6203
33.593
32.8198
32.2497
31.8346
31.5348
31.319
31.1639
31.0523
30.9719
30.9139
30.8719
30.8414
30.8193
30.8033
30.7917
30.7832
30.7771
30.7726
30.7694
30.7671
30.7655
30.7643
30.7634
30.7627
30.7621
30.7611
30.7587
30.7516
30.731
)
;

boundaryField
{
    ibCylinder
    {
        type            immersedBoundaryOmegaWallFunction;
        patchType       immersedBoundary;
        blending        stepwise;
        setDeadValue    true;
        deadValue       500;
        value           nonuniform List<scalar> 0();
    }
    in
    {
        type            fixedValue;
        value           uniform 500;
    }
    out
    {
        type            inletOutlet;
        inletValue      uniform 500;
        value           nonuniform List<scalar> 
25
(
30.8182
29.2507
27.3861
26.0818
25.4228
25.1606
25.0737
25.0488
25.0424
25.0409
25.0406
25.0406
25.0406
25.0406
25.0407
25.0408
25.0418
25.0465
25.0674
25.1463
25.396
26.0409
27.3337
29.1844
30.731
)
;
    }
    top
    {
        type            zeroGradient;
    }
    bottom
    {
        type            zeroGradient;
    }
    frontAndBack
    {
        type            empty;
    }
}


// ************************************************************************* //
