/*--------------------------------*- C++ -*----------------------------------*\
| =========                 |                                                 |
| \\      /  F ield         | OpenFOAM: The Open Source CFD Toolbox           |
|  \\    /   O peration     | Version:  2206                                  |
|   \\  /    A nd           | Website:  www.openfoam.com                      |
|    \\/     M anipulation  |                                                 |
\*---------------------------------------------------------------------------*/
FoamFile
{
    version     2.0;
    format      ascii;
    arch        "LSB;label=32;scalar=64";
    class       volScalarField;
    location    "0.5";
    object      p;
}
// * * * * * * * * * * * * * * * * * * * * * * * * * * * * * * * * * * * * * //

dimensions      [0 2 -2 0 0 0 0];

internalField   nonuniform List<scalar> 
1875
(
2.89456
2.50535
2.2547
2.15724
2.09783
2.05127
2.01773
1.99451
1.97741
1.96381
1.9524
1.94245
1.93344
1.92502
1.9169
1.90867
1.90001
1.8907
1.88055
1.8693
1.85668
1.84235
1.82592
1.80685
1.78443
1.75774
1.72561
1.68656
1.63885
1.58048
1.50938
1.42376
1.32276
1.2073
1.08051
0.946045
0.809233
0.679842
0.565448
0.468991
0.390932
0.330349
0.284566
0.25051
0.225608
0.207693
0.194961
0.185929
0.179397
0.174411
0.170254
0.166404
0.162507
0.158337
0.153766
0.148738
0.143245
0.137304
0.130956
0.124248
0.117227
0.109938
0.102424
0.094722
0.0868654
0.0788821
0.0707952
0.0626246
0.0543876
0.0460978
0.0377672
0.029405
0.0210197
0.012618
0.00420642
2.5196
2.3642
2.23578
2.15872
2.10588
2.06313
2.02944
2.00466
1.98557
1.96999
1.95691
1.94563
1.9356
1.9264
1.91766
1.90902
1.90002
1.8904
1.87999
1.86851
1.85564
1.84104
1.82431
1.80491
1.78213
1.75503
1.72242
1.68281
1.63438
1.57505
1.50265
1.41524
1.31176
1.19344
1.0637
0.927123
0.789499
0.6626
0.553043
0.462711
0.391023
0.336105
0.293727
0.260685
0.23548
0.21668
0.20279
0.19255
0.18489
0.178917
0.173919
0.169369
0.164896
0.160254
0.155299
0.149961
0.144216
0.138073
0.131564
0.124726
0.117602
0.110232
0.102654
0.0949011
0.0870044
0.0789894
0.0708781
0.0626884
0.0544362
0.0461344
0.0377942
0.0294245
0.021033
0.012626
0.00420862
2.34281
2.29251
2.22214
2.16372
2.11645
2.07586
2.04285
2.01652
1.99528
1.9779
1.96334
1.95078
1.93967
1.92962
1.92025
1.91116
1.90187
1.89206
1.88154
1.87008
1.85732
1.84293
1.82649
1.80744
1.78504
1.75834
1.72603
1.68644
1.63747
1.57664
1.50123
1.40868
1.29735
1.16843
1.02718
0.879197
0.734112
0.604516
0.498083
0.416653
0.359064
0.319122
0.288478
0.263119
0.242105
0.225314
0.21198
0.201404
0.192922
0.185937
0.179911
0.174399
0.169065
0.163672
0.158079
0.152214
0.146028
0.139522
0.132717
0.125641
0.118326
0.110803
0.103103
0.0952533
0.0872797
0.0792039
0.0710444
0.0628169
0.0545348
0.0462092
0.0378497
0.0294643
0.0210596
0.0126414
0.004213
2.2635
2.24265
2.19781
2.15375
2.1159
2.08265
2.0533
2.02703
2.00569
1.98783
1.97199
1.95812
1.94601
1.93523
1.92534
1.91585
1.90642
1.89668
1.8864
1.87537
1.86329
1.84983
1.83465
1.81712
1.7963
1.77125
1.74058
1.7022
1.65343
1.59092
1.51076
1.4088
1.28159
1.13017
0.962785
0.783506
0.620003
0.489053
0.386233
0.31632
0.284207
0.27254
0.263596
0.253802
0.243129
0.232338
0.221986
0.212429
0.203681
0.195755
0.188522
0.181766
0.175254
0.168774
0.162239
0.155604
0.148763
0.14171
0.134462
0.127027
0.119424
0.11167
0.103786
0.0957896
0.0876994
0.0795314
0.071299
0.0630136
0.0546855
0.0463233
0.0379342
0.0295247
0.0210996
0.0126642
0.00421989
2.21102
2.20025
2.17282
2.14083
2.111
2.08363
2.05848
2.03523
2.01543
1.99785
1.98133
1.96708
1.95462
1.94322
1.93267
1.92264
1.91301
1.90355
1.89379
1.88356
1.87262
1.86059
1.8472
1.83224
1.81431
1.79199
1.76408
1.72809
1.68043
1.61635
1.52986
1.41361
1.25993
1.07202
0.859382
0.630237
0.441944
0.311762
0.217034
0.161414
0.156227
0.181039
0.207396
0.226071
0.234965
0.236579
0.23302
0.226101
0.217607
0.208668
0.199911
0.191525
0.183492
0.175506
0.167688
0.160055
0.152342
0.144559
0.136732
0.128832
0.120855
0.112802
0.104676
0.0964879
0.0882454
0.0799571
0.0716294
0.0632687
0.0548808
0.0464709
0.0380436
0.0296029
0.0211517
0.0126938
0.0042294
2.17476
2.16859
2.15118
2.12836
2.10502
2.0824
2.06087
2.04045
2.02174
2.00489
1.9894
1.97574
1.96309
1.95116
1.94029
1.93023
1.9208
1.9117
1.90265
1.89347
1.88405
1.87422
1.86348
1.85136
1.837
1.81892
1.79547
1.76377
1.71933
1.65543
1.56286
1.42632
1.2404
1.01712
0.79589
0.480676
0.229249
0.0991308
0.0117818
-0.0263463
0.00433147
0.0647329
0.133577
0.188038
0.218763
0.236056
0.242017
0.239594
0.232272
0.222771
0.212617
0.202494
0.192669
0.183037
0.173939
0.165226
0.156463
0.147807
0.139301
0.130865
0.122471
0.114085
0.10569
0.0972857
0.0888712
0.0804465
0.0720102
0.0635631
0.0551065
0.0466418
0.0381705
0.0296939
0.0212125
0.0127286
0.0042411
2.14927
2.14536
2.13356
2.11681
2.09844
2.07978
2.06131
2.04338
2.02641
2.0107
1.99597
1.98231
1.96965
1.95819
1.94766
1.93767
1.92853
1.92003
1.91185
1.90395
1.89636
1.88901
1.8813
1.87275
1.86291
1.8505
1.83359
1.80892
1.77117
1.71178
1.61787
1.46427
1.26834
1.00393
0.952936
0.531313
0.0812334
-0.0612751
-0.158912
-0.231565
-0.153453
-0.0500221
0.0544607
0.14267
0.199364
0.23166
0.247772
0.251067
0.245892
0.236376
0.225107
0.213368
0.201773
0.190737
0.180362
0.170337
0.160582
0.151232
0.142086
0.133062
0.124191
0.115433
0.106749
0.0981152
0.0895221
0.0809576
0.0724093
0.0638726
0.0553444
0.0468224
0.038305
0.0297906
0.0212776
0.012766
0.00425409
2.1309
2.12813
2.11959
2.10687
2.09214
2.07654
2.0606
2.04475
2.02937
2.01471
2.0008
1.98773
1.97566
1.96443
1.95393
1.94426
1.9356
1.92777
1.92063
1.9142
1.90854
1.90362
1.89906
1.8947
1.89029
1.88472
1.87615
1.86142
1.83489
1.78655
1.70109
1.55369
1.35452
0.961976
0
0
0
0
0
0
-0.139261
-0.0807087
0.0182223
0.11701
0.189925
0.231985
0.255012
0.262377
0.258707
0.248809
0.236368
0.22327
0.210357
0.198033
0.186204
0.174971
0.164462
0.154426
0.144675
0.13518
0.125898
0.1168
0.107833
0.0989598
0.0901772
0.0814645
0.0728027
0.0641767
0.0555777
0.0469996
0.0384373
0.0298861
0.0213422
0.0128033
0.0042675
2.11757
2.11545
2.10888
2.09881
2.0867
2.07341
2.05942
2.0452
2.03111
2.01741
2.00427
1.9918
1.98011
1.96918
1.95909
1.94989
1.94169
1.93453
1.92843
1.92343
1.91963
1.91714
1.91593
1.91602
1.91728
1.9191
1.9202
1.91809
1.90784
1.88136
1.81379
1.69877
1.53622
0
0
0
0
0
0
0
0
-0.0735546
0.0514421
0.125195
0.19464
0.240349
0.264188
0.272883
0.269855
0.259716
0.246327
0.232
0.217807
0.204265
0.191406
0.179275
0.167919
0.157146
0.146877
0.136995
0.127365
0.11798
0.108793
0.0997325
0.0907868
0.0819419
0.0731756
0.0644645
0.0557984
0.0471668
0.0385616
0.0299752
0.0214023
0.0128382
0.00428048
2.10809
2.10636
2.10101
2.09267
2.08235
2.07072
2.0582
2.0452
2.03211
2.01921
2.00669
1.99471
1.9834
1.97284
1.96314
1.95437
1.94661
1.94006
1.93488
1.93116
1.92906
1.92882
1.93067
1.93485
1.94152
1.95063
1.96161
1.9729
1.98137
1.97901
1.94074
1.84953
0
0
0
0
0
0
0
0
0
0
0.114695
0.15519
0.211195
0.253293
0.275466
0.283176
0.279516
0.268654
0.25435
0.238998
0.223795
0.209288
0.19562
0.182802
0.170806
0.1595
0.148765
0.138484
0.128547
0.118907
0.109524
0.10033
0.0912683
0.0823299
0.0734867
0.0647087
0.0559878
0.0473117
0.0386698
0.030053
0.0214551
0.0128693
0.00429216
2.10173
2.10024
2.09563
2.08836
2.0792
2.06868
2.05717
2.04503
2.03265
2.02033
2.00827
1.99666
1.98566
1.9754
1.96601
1.95761
1.95028
1.94417
1.93968
1.93697
1.93624
1.93782
1.94213
1.94963
1.96082
1.97607
1.99553
2.01856
2.04394
2.06461
2.08671
2.44642
0
0
0
0
0
0
0
0
0
0
0.0882702
0.171172
0.225245
0.264476
0.285502
0.292177
0.287445
0.275571
0.260369
0.24418
0.228205
0.212993
0.198718
0.185385
0.172929
0.161227
0.150155
0.139596
0.129446
0.119632
0.110098
0.10078
0.0916252
0.0826089
0.0737035
0.0648814
0.0561226
0.0474169
0.0387503
0.0301116
0.021495
0.0128928
0.00430141
2.09808
2.09671
2.0925
2.08581
2.0773
2.06742
2.05649
2.04487
2.03291
2.02093
2.00917
1.99779
1.98697
1.97689
1.96769
1.95953
1.95255
1.94679
1.94265
1.94057
1.94073
1.94349
1.94939
1.95907
1.97323
1.99253
2.01751
2.04795
2.08291
2.11239
2.14112
0
0
0
0
0
0
0
0
0
0
0
0.130749
0.191708
0.237832
0.274693
0.293097
0.29843
0.292726
0.280052
0.264182
0.247404
0.230921
0.215269
0.200617
0.186964
0.174227
0.162285
0.15101
0.140284
0.130002
0.120081
0.110454
0.101061
0.0918503
0.0827867
0.0738417
0.0649885
0.0562055
0.0474799
0.0387973
0.030146
0.0215186
0.012906
0.0043061
2.09688
2.09556
2.09146
2.08496
2.07666
2.06699
2.05625
2.04481
2.03299
2.02112
2.00945
1.99815
1.98739
1.97736
1.96822
1.96012
1.95334
1.94776
1.94366
1.94178
1.94225
1.94542
1.95188
1.96231
1.9775
1.99822
2.0251
2.05802
2.09605
2.12976
2.16493
0
0
0
0
0
0
0
0
0
0
0
0
0.197542
0.24252
0.278896
0.295999
0.300632
0.294518
0.281575
0.265489
0.2485
0.231838
0.216035
0.201255
0.187493
0.174662
0.162639
0.151297
0.140514
0.130188
0.120231
0.110573
0.101155
0.0919251
0.0828463
0.0738882
0.0650245
0.056234
0.0475011
0.038813
0.0301573
0.0215262
0.0129099
0.00430718
2.09807
2.0967
2.09248
2.0858
2.07729
2.06741
2.05648
2.04486
2.0329
2.02092
2.00916
1.99778
1.98696
1.97688
1.96768
1.95953
1.95254
1.94678
1.94265
1.94057
1.94072
1.94348
1.94939
1.95907
1.97323
1.99255
2.01753
2.04798
2.08294
2.11244
2.1413
0
0
0
0
0
0
0
0
0
0
0
0.135656
0.193311
0.238122
0.27429
0.292924
0.298359
0.29266
0.280013
0.264157
0.247383
0.230904
0.215254
0.200604
0.186953
0.174218
0.162277
0.151002
0.140277
0.129996
0.120076
0.11045
0.101057
0.0918463
0.0827831
0.0738385
0.0649858
0.0562034
0.0474783
0.0387961
0.0301452
0.021518
0.0129057
0.00430599
2.10171
2.10022
2.09561
2.08834
2.07918
2.06866
2.05714
2.04501
2.03263
2.02031
2.00826
1.99664
1.98564
1.97538
1.96599
1.95759
1.95026
1.94415
1.93967
1.93696
1.93623
1.93781
1.94212
1.94963
1.96082
1.97608
1.99556
2.01862
2.04401
2.06454
2.08698
2.45426
0
0
0
0
0
0
0
0
0
0
0.0888761
0.171128
0.225244
0.264291
0.28533
0.29207
0.287368
0.275514
0.260324
0.244142
0.228172
0.212964
0.198692
0.185363
0.17291
0.16121
0.15014
0.139582
0.129434
0.119622
0.110088
0.100771
0.0916173
0.0826017
0.0736972
0.0648761
0.0561184
0.0474136
0.0387479
0.0301099
0.0214938
0.0128922
0.00430118
2.10805
2.10633
2.10098
2.09264
2.08232
2.07068
2.05817
2.04517
2.03208
2.01918
2.00666
1.99468
1.98337
1.97282
1.96311
1.95434
1.94658
1.94003
1.93486
1.93113
1.92904
1.92881
1.93066
1.93484
1.94153
1.95065
1.96165
1.97298
1.98146
1.97907
1.94085
1.84969
0
0
0
0
0
0
0
0
0
0
0.114544
0.154881
0.211
0.253107
0.275318
0.283055
0.279425
0.268581
0.254288
0.238943
0.223746
0.209244
0.195582
0.182769
0.170777
0.159474
0.148742
0.138463
0.128529
0.118891
0.10951
0.100317
0.0912566
0.0823193
0.0734774
0.064701
0.0559816
0.0473069
0.0386663
0.0300505
0.0214534
0.0128683
0.00429182
2.11753
2.11541
2.10884
2.09877
2.08666
2.07337
2.05938
2.04516
2.03107
2.01738
2.00423
1.99176
1.98008
1.96914
1.95905
1.94985
1.94165
1.9345
1.9284
1.9234
1.91961
1.91712
1.91592
1.91602
1.91729
1.91913
1.92026
1.91817
1.90797
1.88145
1.81388
1.69919
1.53611
0
0
0
0
0
0
0
0
-0.0739772
0.0513816
0.125021
0.19446
0.240212
0.264033
0.27276
0.269751
0.259624
0.246247
0.231928
0.217743
0.204208
0.191356
0.179231
0.16788
0.157112
0.146847
0.136967
0.127341
0.117959
0.108774
0.0997154
0.0907714
0.0819281
0.0731636
0.0644544
0.0557902
0.0471605
0.0385569
0.0299718
0.0214001
0.012837
0.00428003
2.13085
2.12808
2.11954
2.10682
2.09209
2.07649
2.06055
2.0447
2.02932
2.01466
2.00075
1.98768
1.97561
1.96438
1.95389
1.94421
1.93556
1.92773
1.92058
1.91416
1.9085
1.90359
1.89903
1.89468
1.89029
1.88474
1.87619
1.8615
1.83498
1.78672
1.70127
1.55407
1.35489
0.959364
0
0
0
0
0
0
-0.139131
-0.0809961
0.0180026
0.116932
0.189763
0.23181
0.254854
0.262242
0.258583
0.248698
0.23627
0.223182
0.210278
0.197963
0.186142
0.174917
0.164415
0.154384
0.144637
0.135146
0.125869
0.116774
0.10781
0.0989389
0.0901584
0.0814478
0.0727881
0.0641644
0.0555677
0.0469918
0.0384315
0.029882
0.0213394
0.0128017
0.00426692
2.14921
2.1453
2.1335
2.11675
2.09838
2.07973
2.06125
2.04332
2.02635
2.01065
1.99591
1.98226
1.9696
1.95814
1.94761
1.93762
1.92848
1.91998
1.9118
1.9039
1.89632
1.88896
1.88127
1.87273
1.8629
1.85051
1.83362
1.80898
1.77128
1.71193
1.61824
1.46475
1.26841
1.0041
0.95255
0.529728
0.080343
-0.0617304
-0.159294
-0.231945
-0.153648
-0.0503058
0.0541078
0.142476
0.199161
0.231455
0.247585
0.250903
0.245744
0.236244
0.224989
0.213263
0.201679
0.190654
0.180289
0.170273
0.160524
0.151182
0.142041
0.133022
0.124157
0.115402
0.106722
0.0980906
0.0895002
0.0809382
0.0723925
0.0638584
0.0553327
0.0468133
0.0382981
0.0297857
0.0212743
0.0127641
0.00425342
2.17469
2.16852
2.15112
2.12829
2.10495
2.08234
2.0608
2.04039
2.02168
2.00482
1.98934
1.97568
1.96303
1.9511
1.94023
1.93017
1.92074
1.91165
1.90259
1.89341
1.88399
1.87417
1.86343
1.85132
1.83697
1.81891
1.79548
1.76382
1.7194
1.65556
1.56307
1.42661
1.24079
1.01715
0.795022
0.479795
0.228662
0.0986836
0.0113813
-0.0267348
0.0039795
0.0644765
0.133225
0.187759
0.218529
0.235837
0.241814
0.239407
0.232102
0.222618
0.21248
0.202372
0.192561
0.182942
0.173855
0.165152
0.156397
0.147749
0.13925
0.13082
0.122431
0.114049
0.105659
0.0972578
0.0888465
0.0804248
0.0719914
0.0635472
0.0550934
0.0466314
0.0381626
0.0296881
0.0212086
0.0127263
0.0042403
2.21095
2.20018
2.17275
2.14076
2.11092
2.08356
2.05841
2.03516
2.01536
1.99778
1.98126
1.96701
1.95455
1.94316
1.9326
1.92257
1.91295
1.90348
1.89373
1.8835
1.87256
1.86053
1.84714
1.83219
1.81427
1.79196
1.76408
1.72811
1.68047
1.61642
1.52997
1.41377
1.25999
1.0719
0.858857
0.629712
0.441459
0.311297
0.216609
0.161033
0.155848
0.180807
0.207066
0.225765
0.234712
0.236347
0.232797
0.225896
0.217419
0.208497
0.199758
0.191389
0.183371
0.1754
0.167595
0.159973
0.152269
0.144495
0.136675
0.128782
0.120811
0.112762
0.104642
0.0964571
0.0882183
0.0799333
0.0716089
0.0632513
0.0548664
0.0464594
0.0380347
0.0295963
0.0211472
0.0126912
0.00422848
2.26342
2.24257
2.19773
2.15367
2.11582
2.08257
2.05322
2.02695
2.00561
1.98776
1.97191
1.95804
1.94594
1.93515
1.92527
1.91578
1.90635
1.89661
1.88633
1.8753
1.86322
1.84976
1.83458
1.81705
1.79625
1.77121
1.74055
1.70219
1.65343
1.59094
1.51079
1.40883
1.28156
1.13003
0.962483
0.783117
0.619598
0.488641
0.385824
0.315943
0.283844
0.272221
0.263278
0.253501
0.242857
0.232088
0.221747
0.212208
0.203478
0.19557
0.188356
0.181618
0.175123
0.168658
0.162137
0.155514
0.148684
0.14164
0.134401
0.126973
0.119376
0.111628
0.103748
0.0957564
0.0876703
0.079506
0.0712771
0.062995
0.05467
0.0463107
0.0379244
0.0295174
0.0210946
0.0126613
0.00421886
2.34273
2.29243
2.22205
2.16364
2.11636
2.07578
2.04277
2.01643
1.9952
1.97781
1.96326
1.9507
1.93959
1.92954
1.92017
1.91108
1.9018
1.89198
1.88147
1.87
1.85724
1.84285
1.82642
1.80736
1.78498
1.75829
1.72599
1.68641
1.63745
1.57663
1.50121
1.40864
1.29727
1.16827
1.02692
0.87888
0.733762
0.604146
0.497707
0.416287
0.35871
0.318789
0.288158
0.262813
0.241821
0.225048
0.211731
0.201173
0.19271
0.185743
0.179736
0.174243
0.168927
0.16355
0.157971
0.152118
0.145944
0.139448
0.132652
0.125584
0.118275
0.110758
0.103063
0.0952183
0.087249
0.0791772
0.0710214
0.0627973
0.0545184
0.0461959
0.0378392
0.0294564
0.0210541
0.0126382
0.0042119
2.51952
2.36412
2.23569
2.15864
2.10579
2.06305
2.02935
2.00458
1.98548
1.96991
1.95683
1.94554
1.93551
1.92632
1.91758
1.90894
1.89994
1.89032
1.87991
1.86843
1.85556
1.84096
1.82423
1.80483
1.78206
1.75497
1.72237
1.68276
1.63434
1.57501
1.5026
1.41516
1.31165
1.19327
1.06346
0.926835
0.789179
0.662259
0.552692
0.462358
0.390677
0.335771
0.293406
0.260378
0.23519
0.21641
0.202536
0.192314
0.184673
0.178718
0.173739
0.169208
0.164753
0.160128
0.155187
0.149862
0.144129
0.137996
0.131496
0.124667
0.11755
0.110186
0.102613
0.094865
0.0869727
0.0789619
0.0708543
0.0626681
0.0544192
0.0461206
0.0377832
0.0294162
0.0210273
0.0126227
0.00420747
2.89447
2.50527
2.25461
2.15715
2.09774
2.05118
2.01764
1.99443
1.97733
1.96372
1.95232
1.94236
1.93336
1.92494
1.91682
1.90859
1.89993
1.89062
1.88046
1.86922
1.85659
1.84227
1.82584
1.80677
1.78436
1.75768
1.72555
1.68651
1.6388
1.58042
1.50932
1.42366
1.32263
1.20712
1.08028
0.945771
0.808928
0.679515
0.565108
0.468648
0.390589
0.330017
0.284244
0.250203
0.225317
0.207421
0.194707
0.185693
0.179178
0.174211
0.170072
0.166241
0.162362
0.158209
0.153652
0.148638
0.143156
0.137226
0.130887
0.124188
0.117174
0.109891
0.102383
0.0946853
0.0868332
0.0788541
0.070771
0.0626041
0.0543703
0.0460837
0.0377559
0.0293965
0.0210138
0.0126146
0.00420525
)
;

boundaryField
{
    ibCylinder
    {
        type            zeroGradientIb;
        patchType       immersedBoundary;
        setDeadValue    true;
        deadValue       0;
        value           nonuniform List<scalar> 0();
    }
    in
    {
        type            zeroGradient;
    }
    out
    {
        type            fixedValue;
        value           uniform 0;
    }
    top
    {
        type            zeroGradient;
    }
    bottom
    {
        type            zeroGradient;
    }
    frontAndBack
    {
        type            empty;
    }
}


// ************************************************************************* //
