/*--------------------------------*- C++ -*----------------------------------*\
| =========                 |                                                 |
| \\      /  F ield         | OpenFOAM: The Open Source CFD Toolbox           |
|  \\    /   O peration     | Version:  2206                                  |
|   \\  /    A nd           | Website:  www.openfoam.com                      |
|    \\/     M anipulation  |                                                 |
\*---------------------------------------------------------------------------*/
FoamFile
{
    version     2.0;
    format      ascii;
    arch        "LSB;label=32;scalar=64";
    class       surfaceVectorField;
    location    "0.5";
    object      Uf;
}
// * * * * * * * * * * * * * * * * * * * * * * * * * * * * * * * * * * * * * //

dimensions      [0 1 -1 0 0 0 0];

internalField   nonuniform List<vector> 
3650
(
(0.859788 0.0532576 0)
(0.903262 0.140212 0)
(0.701361 0.0846404 0)
(0.900258 0.158427 0)
(0.567293 0.0661221 0)
(0.843133 0.134069 0)
(0.463794 0.0366929 0)
(0.752149 0.103499 0)
(0.387757 0.0190006 0)
(0.672037 0.0760379 0)
(0.333954 0.0103137 0)
(0.606831 0.0538029 0)
(0.29628 0.00557014 0)
(0.55485 0.0376746 0)
(0.270048 0.00292857 0)
(0.513279 0.026232 0)
(0.251739 0.00150745 0)
(0.480966 0.0183093 0)
(0.238931 0.000732984 0)
(0.456433 0.0128078 0)
(0.230132 0.000271987 0)
(0.438167 0.00879916 0)
(0.22439 -3.47911e-05 0)
(0.425024 0.00574249 0)
(0.221044 -0.000265036 0)
(0.416086 0.0033464 0)
(0.219622 -0.000459274 0)
(0.410593 0.00142247 0)
(0.219736 -0.000654258 0)
(0.407962 -0.000113933 0)
(0.221034 -0.00085668 0)
(0.407602 -0.00129817 0)
(0.223463 -0.00106174 0)
(0.409103 -0.00242889 0)
(0.226985 -0.00129634 0)
(0.412385 -0.00352213 0)
(0.231641 -0.00158469 0)
(0.417341 -0.00465561 0)
(0.237553 -0.00194176 0)
(0.424024 -0.00591198 0)
(0.24493 -0.0023863 0)
(0.432604 -0.00737647 0)
(0.254068 -0.00294035 0)
(0.443374 -0.00913891 0)
(0.265356 -0.00362398 0)
(0.456749 -0.0112874 0)
(0.27925 -0.00445328 0)
(0.473256 -0.0138938 0)
(0.296262 -0.00543586 0)
(0.493506 -0.0170112 0)
(0.316925 -0.00656202 0)
(0.518166 -0.0206639 0)
(0.341757 -0.00779534 0)
(0.54793 -0.0248305 0)
(0.371163 -0.0090547 0)
(0.583445 -0.0294078 0)
(0.405311 -0.0101934 0)
(0.625198 -0.0341474 0)
(0.443916 -0.0109831 0)
(0.673322 -0.0386054 0)
(0.486003 -0.0111033 0)
(0.727343 -0.0420888 0)
(0.529614 -0.0101584 0)
(0.785816 -0.0436123 0)
(0.57151 -0.00783915 0)
(0.846049 -0.0418965 0)
(0.60733 -0.00422818 0)
(0.903636 -0.0358207 0)
(0.632258 0.000265961 0)
(0.952657 -0.0249281 0)
(0.641901 0.00500894 0)
(0.985998 -0.00964396 0)
(0.635442 0.00959512 0)
(0.997927 0.00645928 0)
(0.613262 0.0131984 0)
(0.98919 0.022179 0)
(0.577347 0.0149405 0)
(0.958127 0.0359169 0)
(0.531991 0.0149384 0)
(0.907789 0.0453552 0)
(0.482475 0.013586 0)
(0.844251 0.0495194 0)
(0.43391 0.0115211 0)
(0.774835 0.0485645 0)
(0.389667 0.00940739 0)
(0.706203 0.0442455 0)
(0.351216 0.00752428 0)
(0.643569 0.0384499 0)
(0.319001 0.00589411 0)
(0.589085 0.0322163 0)
(0.292829 0.0045164 0)
(0.54354 0.0261712 0)
(0.272124 0.00338847 0)
(0.506739 0.0207056 0)
(0.256112 0.00248988 0)
(0.477802 0.0160122 0)
(0.243969 0.00179095 0)
(0.455543 0.0121435 0)
(0.234912 0.00125889 0)
(0.438718 0.00905697 0)
(0.228257 0.000861819 0)
(0.426179 0.00665556 0)
(0.223434 0.000571886 0)
(0.416948 0.00482275 0)
(0.219984 0.000365571 0)
(0.410226 0.00345009 0)
(0.217544 0.00022228 0)
(0.405371 0.00244075 0)
(0.215836 0.000124758 0)
(0.401888 0.00170793 0)
(0.214656 6.01344e-05 0)
(0.399407 0.00118004 0)
(0.213852 1.91216e-05 0)
(0.397653 0.000804016 0)
(0.213313 -5.61749e-06 0)
(0.396422 0.000538953 0)
(0.212959 -1.95692e-05 0)
(0.395566 0.000353996 0)
(0.212732 -2.64433e-05 0)
(0.394975 0.000226475 0)
(0.212592 -2.88536e-05 0)
(0.394572 0.000139654 0)
(0.212511 -2.85442e-05 0)
(0.394301 8.12296e-05 0)
(0.212468 -2.66636e-05 0)
(0.394123 4.2691e-05 0)
(0.21245 -2.39886e-05 0)
(0.394008 1.79091e-05 0)
(0.212448 -2.11292e-05 0)
(0.393937 2.69621e-06 0)
(0.212454 -1.82221e-05 0)
(0.393895 -6.18851e-06 0)
(0.212465 -1.53481e-05 0)
(0.393872 -1.06514e-05 0)
(0.212477 -1.26873e-05 0)
(0.393861 -1.24541e-05 0)
(0.212489 -1.02419e-05 0)
(0.393857 -1.23692e-05 0)
(0.212501 -8.03842e-06 0)
(0.393857 -1.12331e-05 0)
(0.21251 -6.06714e-06 0)
(0.39386 -9.43329e-06 0)
(0.212517 -4.3073e-06 0)
(0.393862 -7.34177e-06 0)
(0.212522 -2.71526e-06 0)
(0.393864 -4.80391e-06 0)
(0.212524 -9.7267e-07 0)
(0.393865 -2.0649e-06 0)
(0.393861 1.6492e-06 0)
(1.05168 0.154946 0)
(1.01328 0.0885339 0)
(1.04733 0.183216 0)
(1.05542 0.162773 0)
(1.01046 0.168293 0)
(1.06743 0.170943 0)
(0.955297 0.14339 0)
(1.04908 0.158659 0)
(0.891073 0.113168 0)
(1.01387 0.140262 0)
(0.827344 0.0841425 0)
(0.971499 0.117532 0)
(0.770774 0.0609866 0)
(0.928447 0.0942443 0)
(0.723467 0.0437821 0)
(0.886687 0.0735391 0)
(0.685295 0.031209 0)
(0.848801 0.0564815 0)
(0.655424 0.0218957 0)
(0.816562 0.042679 0)
(0.632874 0.0148159 0)
(0.790175 0.03135 0)
(0.616575 0.00932209 0)
(0.769439 0.0220417 0)
(0.605507 0.00499755 0)
(0.753913 0.0144146 0)
(0.59879 0.00157496 0)
(0.743006 0.00813964 0)
(0.595698 -0.00108288 0)
(0.736166 0.00297822 0)
(0.595584 -0.00332603 0)
(0.732883 -0.00118337 0)
(0.597938 -0.00546635 0)
(0.732558 -0.00478318 0)
(0.602626 -0.00757282 0)
(0.734862 -0.00820989 0)
(0.609592 -0.00980025 0)
(0.739664 -0.0116218 0)
(0.61892 -0.0123189 0)
(0.746946 -0.0152405 0)
(0.630857 -0.0152904 0)
(0.756836 -0.0193133 0)
(0.645809 -0.0188708 0)
(0.769612 -0.024091 0)
(0.66434 -0.0231935 0)
(0.785737 -0.0298179 0)
(0.687125 -0.0283607 0)
(0.805835 -0.0366782 0)
(0.714942 -0.034439 0)
(0.830607 -0.044829 0)
(0.748621 -0.0414282 0)
(0.860891 -0.0543418 0)
(0.788996 -0.0492113 0)
(0.897627 -0.0652059 0)
(0.83682 -0.0574793 0)
(0.941785 -0.0772312 0)
(0.892583 -0.0656424 0)
(0.994257 -0.089911 0)
(0.956272 -0.072738 0)
(1.05567 -0.102294 0)
(1.02702 -0.0773516 0)
(1.12614 -0.112843 0)
(1.10269 -0.0775604 0)
(1.20478 -0.119281 0)
(1.1792 -0.0712078 0)
(1.28899 -0.118398 0)
(1.25022 -0.056725 0)
(1.37371 -0.106847 0)
(1.30818 -0.0338781 0)
(1.45117 -0.082885 0)
(1.34465 -0.00605449 0)
(1.51266 -0.0461105 0)
(1.35353 0.0226077 0)
(1.54727 -0.00242696 0)
(1.33483 0.0499505 0)
(1.55154 0.0408789 0)
(1.28884 0.0724469 0)
(1.52471 0.0819107 0)
(1.21989 0.0864341 0)
(1.46834 0.114305 0)
(1.13594 0.0907515 0)
(1.38854 0.133471 0)
(1.04645 0.0868959 0)
(1.29494 0.13805 0)
(0.959556 0.0779471 0)
(1.19727 0.131144 0)
(0.880852 0.0667833 0)
(1.10397 0.117154 0)
(0.813049 0.0552443 0)
(1.02062 0.10002 0)
(0.756929 0.0443759 0)
(0.949585 0.0822913 0)
(0.711957 0.0347692 0)
(0.891443 0.0656772 0)
(0.676841 0.026679 0)
(0.845348 0.0511283 0)
(0.649974 0.0201183 0)
(0.809686 0.0390116 0)
(0.629736 0.0149485 0)
(0.782599 0.0292947 0)
(0.614682 0.0109614 0)
(0.762303 0.0217105 0)
(0.603601 0.00794209 0)
(0.747265 0.0159034 0)
(0.595516 0.00569543 0)
(0.736232 0.0115358 0)
(0.589651 0.00404734 0)
(0.728188 0.00830606 0)
(0.585417 0.00284888 0)
(0.72234 0.00594165 0)
(0.582378 0.0019844 0)
(0.718106 0.00421845 0)
(0.580209 0.00136688 0)
(0.715056 0.00297341 0)
(0.578668 0.00092936 0)
(0.712865 0.00208042 0)
(0.577579 0.000621993 0)
(0.711295 0.00144295 0)
(0.576814 0.00040808 0)
(0.710176 0.000990633 0)
(0.576282 0.000260565 0)
(0.709381 0.000671657 0)
(0.575915 0.000159951 0)
(0.70882 0.000448009 0)
(0.575666 9.24041e-05 0)
(0.708427 0.00029255 0)
(0.575498 4.80679e-05 0)
(0.708154 0.000185718 0)
(0.575387 1.98893e-05 0)
(0.707966 0.000113443 0)
(0.575315 2.80328e-06 0)
(0.707838 6.54999e-05 0)
(0.57527 -6.84962e-06 0)
(0.707751 3.44917e-05 0)
(0.575243 -1.15765e-05 0)
(0.707694 1.50403e-05 0)
(0.575227 -1.30586e-05 0)
(0.707656 3.54601e-06 0)
(0.575218 -1.24902e-05 0)
(0.707632 -2.53528e-06 0)
(0.575213 -1.06066e-05 0)
(0.707616 -4.88795e-06 0)
(0.575211 -7.68616e-06 0)
(0.707605 -4.56736e-06 0)
(0.575208 -3.95551e-06 0)
(0.707597 -2.26335e-06 0)
(0.575204 6.71644e-07 0)
(0.707591 1.48024e-06 0)
(0.70758 6.97295e-06 0)
(1.03945 0.111181 0)
(1.00907 0.0490803 0)
(1.08191 0.157513 0)
(1.04732 0.120316 0)
(1.10288 0.165155 0)
(1.08749 0.149975 0)
(1.10551 0.159158 0)
(1.11051 0.156025 0)
(1.0943 0.146986 0)
(1.11688 0.151471 0)
(1.07252 0.129014 0)
(1.11463 0.139318 0)
(1.04376 0.107777 0)
(1.10238 0.123001 0)
(1.01157 0.0867763 0)
(1.08427 0.105729 0)
(0.979803 0.0680719 0)
(1.06288 0.0882515 0)
(0.951092 0.0520979 0)
(1.04094 0.07139 0)
(0.926574 0.0385492 0)
(1.01997 0.0558689 0)
(0.906649 0.0271005 0)
(1.00111 0.041967 0)
(0.891291 0.0174797 0)
(0.985223 0.029773 0)
(0.880256 0.00942934 0)
(0.972586 0.019175 0)
(0.873208 0.00274065 0)
(0.963276 0.0100264 0)
(0.869772 -0.00279634 0)
(0.957254 0.00225251 0)
(0.869411 -0.00771143 0)
(0.954275 -0.00442258 0)
(0.871798 -0.0124853 0)
(0.953999 -0.0105963 0)
(0.876899 -0.0173252 0)
(0.956314 -0.0167238 0)
(0.884727 -0.0225329 0)
(0.961218 -0.0230684 0)
(0.895426 -0.028456 0)
(0.968788 -0.0300118 0)
(0.909324 -0.0354443 0)
(0.979212 -0.0379897 0)
(0.926969 -0.0437981 0)
(0.99289 -0.0474622 0)
(0.948978 -0.0537295 0)
(1.01051 -0.0586873 0)
(0.976138 -0.0653885 0)
(1.03252 -0.0719881 4.00545e-34)
(1.0094 -0.0788646 0)
(1.05993 -0.0876016 -3.9642e-34)
(1.04984 -0.0940806 0)
(1.09387 -0.105646 0)
(1.09859 -0.11063 0)
(1.13567 -0.125988 0)
(1.15673 -0.127622 0)
(1.18678 -0.14805 0)
(1.22504 -0.143496 0)
(1.24866 -0.170605 0)
(1.3037 -0.155787 0)
(1.3226 -0.191496 0)
(1.39151 -0.160823 0)
(1.40932 -0.207096 0)
(1.48458 -0.154168 0)
(1.50681 -0.211463 0)
(1.57594 -0.132287 0)
(1.60869 -0.198208 0)
(1.65743 -0.0931881 0)
(1.70588 -0.164373 0)
(1.71792 -0.039713 0)
(1.78703 -0.106607 0)
(1.7467 0.018428 0)
(1.84159 -0.0312037 0)
(1.74191 0.0749451 0)
(1.85653 0.0456724 0)
(1.70427 0.125655 0)
(1.83742 0.119549 0)
(1.63639 0.162903 0)
(1.78827 0.182186 0)
(1.5465 0.181858 0)
(1.71212 0.223361 0)
(1.44513 0.183095 0)
(1.61359 0.239425 0)
(1.34139 0.171015 0)
(1.50674 0.234885 0)
(1.24343 0.150889 0)
(1.40066 0.215107 0)
(1.15678 0.127375 0)
(1.30322 0.186675 0)
(1.08374 0.103762 0)
(1.2187 0.155328 0)
(1.0245 0.082109 0)
(1.1487 0.124916 0)
(0.977897 0.0634715 0)
(1.09281 0.0977351 0)
(0.94206 0.0481682 0)
(1.04939 0.074849 0)
(0.914961 0.036026 0)
(1.01631 0.0563938 0)
(0.894727 0.0266187 0)
(0.991469 0.0419452 0)
(0.879778 0.0194649 0)
(0.973014 0.0308519 0)
(0.868823 0.0141207 0)
(0.95946 0.0224915 0)
(0.860821 0.0101827 0)
(0.949562 0.0163073 0)
(0.854991 0.00729858 0)
(0.942326 0.0117726 0)
(0.850761 0.00519782 0)
(0.93705 0.00844841 0)
(0.847699 0.00368023 0)
(0.933226 0.00603532 0)
(0.845485 0.00258941 0)
(0.930452 0.00429405 0)
(0.843889 0.00180844 0)
(0.928438 0.00303894 0)
(0.842742 0.00125216 0)
(0.92698 0.0021379 0)
(0.84192 0.000857797 0)
(0.925928 0.00149342 0)
(0.841334 0.000579788 0)
(0.92517 0.00103388 0)
(0.840918 0.000385381 0)
(0.924626 0.000708135 0)
(0.840625 0.000250846 0)
(0.924238 0.000478937 0)
(0.840419 0.00015896 0)
(0.923961 0.000319138 0)
(0.840276 9.71636e-05 0)
(0.923765 0.000208825 0)
(0.840177 5.63791e-05 0)
(0.923627 0.000133597 0)
(0.840109 3.01976e-05 0)
(0.923529 8.30818e-05 0)
(0.840062 1.4165e-05 0)
(0.923462 4.99966e-05 0)
(0.840031 5.20528e-06 0)
(0.923414 2.91716e-05 0)
(0.840009 1.26767e-06 0)
(0.923381 1.69803e-05 0)
(0.839993 9.22587e-07 0)
(0.923357 1.10682e-05 0)
(0.839981 3.22312e-06 0)
(0.923339 9.5354e-06 0)
(0.839971 7.76399e-06 0)
(0.923327 1.16297e-05 0)
(0.92331 1.62174e-05 0)
(1.01968 0.0665763 0)
(1.0042 0.0293988 0)
(1.05936 0.113278 0)
(1.02709 0.080638 0)
(1.09563 0.138418 0)
(1.06402 0.113703 0)
(1.12121 0.146271 0)
(1.09755 0.130446 0)
(1.13724 0.143032 0)
(1.12127 0.135442 0)
(1.14431 0.133539 0)
(1.13897 0.13225 0)
(1.14291 0.121326 0)
(1.14749 0.124398 0)
(1.13528 0.107486 0)
(1.15006 0.113362 0)
(1.12373 0.0919829 0)
(1.14835 0.0997979 0)
(1.10969 0.0756185 0)
(1.14183 0.0854302 0)
(1.0944 0.0595973 0)
(1.13311 0.0711586 0)
(1.07958 0.0447739 0)
(1.12307 0.0567913 0)
(1.06641 0.0315287 0)
(1.11286 0.0429432 0)
(1.05548 0.0198522 0)
(1.10337 0.0301016 0)
(1.04721 0.00965784 0)
(1.09517 0.0183009 0)
(1.04166 0.00079404 0)
(1.0888 0.00779507 0)
(1.0388 -0.00709239 0)
(1.08448 -0.00156134 0)
(1.03844 -0.0145986 0)
(1.08226 -0.0102283 0)
(1.04053 -0.0222093 0)
(1.08213 -0.0188199 0)
(1.04517 -0.0302535 0)
(1.08419 -0.0277045 0)
(1.05244 -0.0391888 0)
(1.08854 -0.0372828 0)
(1.06258 -0.0495546 0)
(1.0953 -0.0481273 0)
(1.07618 -0.0618362 0)
(1.10466 -0.0610679 0)
(1.09376 -0.0764395 4.00545e-34)
(1.11761 -0.0762623 0)
(1.11592 -0.093683 4.48836e-36)
(1.13404 -0.0941502 4.00545e-34)
(1.14389 -0.113819 -3.9642e-34)
(1.15575 -0.11557 -3.9642e-34)
(1.17909 -0.136978 0)
(1.1837 -0.140846 0)
(1.22315 -0.16288 0)
(1.21958 -0.170051 0)
(1.27796 -0.190599 0)
(1.26554 -0.202854 0)
(1.34553 -0.218278 0)
(1.32417 -0.238177 0)
(1.42779 -0.242509 0)
(1.39847 -0.27376 0)
(1.52504 -0.257207 0)
(1.4915 -0.304345 0)
(1.63231 -0.254616 0)
(1.59942 -0.318732 0)
(1.73999 -0.228953 0)
(1.71094 -0.305886 0)
(1.83856 -0.176213 0)
(1.81574 -0.262939 0)
(1.91353 -0.0970384 0)
(1.90014 -0.181576 0)
(1.95202 -0.00350619 0)
(1.95962 -0.0697011 0)
(1.95263 0.090464 0)
(1.97028 0.0450677 0)
(1.92164 0.176156 0)
(1.95397 0.150535 0)
(1.86224 0.243286 0)
(1.91536 0.241586 0)
(1.77733 0.28255 0)
(1.85163 0.308279 0)
(1.67456 0.292965 0)
(1.75916 0.342195 0)
(1.56586 0.280106 0)
(1.6559 0.343587 0)
(1.46037 0.251472 0)
(1.55126 0.320598 0)
(1.36497 0.214845 0)
(1.45252 0.282072 0)
(1.28349 0.176461 0)
(1.365 0.236805 0)
(1.21683 0.140424 0)
(1.29181 0.191576 0)
(1.16414 0.108994 0)
(1.23297 0.15043 0)
(1.12349 0.0829848 0)
(1.18702 0.115495 0)
(1.09268 0.0622548 0)
(1.1519 0.0872051 0)
(1.06963 0.046147 0)
(1.12546 0.064991 0)
(1.0526 0.0338643 0)
(1.1058 0.0478818 0)
(1.04014 0.0246792 0)
(1.09138 0.034956 0)
(1.03102 0.0179118 0)
(1.08087 0.0254247 0)
(1.02435 0.0129399 0)
(1.07317 0.0184479 0)
(1.0195 0.00930278 0)
(1.06754 0.0132994 0)
(1.01597 0.00666602 0)
(1.06347 0.00956341 0)
(1.0134 0.0047587 0)
(1.0605 0.00686551 0)
(1.01153 0.00338075 0)
(1.05833 0.00491003 0)
(1.01017 0.00238894 0)
(1.05674 0.00349828 0)
(1.00918 0.00167719 0)
(1.05559 0.00248089 0)
(1.00846 0.00116838 0)
(1.05475 0.00174867 0)
(1.00795 0.000806741 0)
(1.05414 0.00122416 0)
(1.00758 0.00055141 0)
(1.0537 0.000850582 0)
(1.00731 0.000372458 0)
(1.05338 0.000586102 0)
(1.00712 0.000248097 0)
(1.05315 0.000400017 0)
(1.00698 0.000162605 0)
(1.05299 0.000270086 0)
(1.00688 0.000104714 0)
(1.05287 0.000180282 0)
(1.00681 6.6413e-05 0)
(1.05278 0.000119114 0)
(1.00677 4.1985e-05 0)
(1.05272 7.83973e-05 0)
(1.00673 2.75174e-05 0)
(1.05267 5.21993e-05 0)
(1.0067 2.01544e-05 0)
(1.05264 3.67307e-05 0)
(1.00669 1.81825e-05 0)
(1.05262 2.85693e-05 0)
(1.00667 2.01411e-05 0)
(1.0526 2.69974e-05 0)
(1.05258 2.84254e-05 0)
(1.01041 0.0441786 0)
(1.00231 0.0189862 0)
(1.03606 0.0802081 0)
(1.01542 0.0549876 0)
(1.06732 0.104893 0)
(1.04067 0.0824473 0)
(1.09747 0.11888 0)
(1.06991 0.100295 0)
(1.1229 0.123914 0)
(1.09688 0.11001 0)
(1.14203 0.122447 0)
(1.12012 0.113119 0)
(1.15501 0.116231 0)
(1.13838 0.111418 0)
(1.16285 0.106052 0)
(1.15193 0.105526 0)
(1.16617 0.0938927 0)
(1.16169 0.0964807 0)
(1.16536 0.0815262 0)
(1.16621 0.0862394 0)
(1.16169 0.0687817 0)
(1.16785 0.0748218 0)
(1.15622 0.0554453 0)
(1.16712 0.0622674 0)
(1.14974 0.0420718 0)
(1.16398 0.0494247 0)
(1.14295 0.029069 0)
(1.15994 0.0368919 0)
(1.13669 0.0168353 0)
(1.15537 0.0245592 0)
(1.13153 0.00571725 0)
(1.15106 0.0129527 0)
(1.12785 -0.00445467 0)
(1.14739 0.00212383 0)
(1.12589 -0.0141802 0)
(1.1447 -0.00826931 0)
(1.12571 -0.0240179 0)
(1.14322 -0.018638 0)
(1.12747 -0.0344249 0)
(1.14313 -0.0294653 0)
(1.1313 -0.0459443 0)
(1.1446 -0.0411121 0)
(1.13724 -0.0594094 0)
(1.14777 -0.0540672 0)
(1.14576 -0.0751598 0)
(1.15258 -0.0695932 0)
(1.15758 -0.0934576 0)
(1.16026 -0.0880766 0)
(1.17353 -0.11553 0)
(1.17085 -0.110104 0)
(1.19497 -0.142223 0)
(1.18604 -0.137013 0)
(1.22343 -0.17369 0)
(1.20687 -0.169303 0)
(1.26104 -0.21001 0)
(1.23529 -0.207663 0)
(1.31068 -0.250728 0)
(1.27416 -0.252496 0)
(1.37596 -0.294327 0)
(1.32715 -0.303456 0)
(1.46117 -0.336407 0)
(1.39946 -0.358965 0)
(1.56655 -0.367185 0)
(1.49518 -0.40973 0)
(1.67974 -0.373345 0)
(1.60079 -0.431918 0)
(1.78864 -0.348331 0)
(1.69453 -0.414788 0)
(1.88363 -0.27884 0)
(1.77254 -0.357928 0)
(1.94891 -0.160771 0)
(1.81043 -0.246856 0)
(1.97659 -0.024939 0)
(1.81517 -0.0973821 0)
(1.97283 0.101735 0)
(1.80291 0.0488296 0)
(1.94826 0.212891 0)
(1.80414 0.175108 0)
(1.90162 0.303423 0)
(1.80331 0.28823 0)
(1.83063 0.364765 0)
(1.77883 0.379265 0)
(1.73927 0.390435 0)
(1.72479 0.433553 0)
(1.64107 0.382645 0)
(1.65003 0.441787 0)
(1.54353 0.350658 0)
(1.56887 0.418144 0)
(1.45272 0.304346 0)
(1.48671 0.372878 0)
(1.37349 0.252532 0)
(1.4093 0.316039 0)
(1.30799 0.202072 0)
(1.34228 0.257068 0)
(1.25586 0.157381 0)
(1.28785 0.202562 0)
(1.2154 0.120087 0)
(1.24518 0.155957 0)
(1.18461 0.0902346 0)
(1.21257 0.117996 0)
(1.16154 0.06697 0)
(1.18811 0.0880592 0)
(1.14449 0.0491941 0)
(1.16996 0.0649312 0)
(1.13209 0.0358827 0)
(1.15664 0.0473644 0)
(1.12299 0.0260746 0)
(1.14691 0.0345222 0)
(1.11631 0.0188725 0)
(1.13993 0.0251224 0)
(1.1115 0.0136119 0)
(1.1348 0.0181147 0)
(1.10799 0.00981253 0)
(1.1311 0.0130712 0)
(1.10542 0.00706205 0)
(1.1284 0.00943629 0)
(1.10354 0.00506707 0)
(1.12641 0.00678787 0)
(1.10217 0.00362285 0)
(1.12494 0.00487201 0)
(1.10116 0.0025777 0)
(1.12387 0.00348469 0)
(1.10043 0.00182355 0)
(1.12309 0.00248077 0)
(1.0999 0.00128231 0)
(1.12251 0.00175778 0)
(1.09951 0.000895969 0)
(1.1221 0.00123929 0)
(1.09923 0.000621634 0)
(1.12179 0.000869032 0)
(1.09902 0.000427938 0)
(1.12157 0.000605656 0)
(1.09887 0.000292185 0)
(1.1214 0.000419311 0)
(1.09876 0.000197986 0)
(1.12128 0.000288473 0)
(1.09868 0.00013356 0)
(1.1212 0.000197529 0)
(1.09863 9.04235e-05 0)
(1.12113 0.000135311 0)
(1.09859 6.27085e-05 0)
(1.12109 9.35848e-05 0)
(1.09856 4.60151e-05 0)
(1.12106 6.71111e-05 0)
(1.09853 3.79022e-05 0)
(1.12103 5.0936e-05 0)
(1.09852 3.55275e-05 0)
(1.12101 4.45975e-05 0)
(1.12099 4.14448e-05 0)
(1.00594 0.0306414 0)
(1.00138 0.0130499 0)
(1.02218 0.057413 0)
(1.00942 0.0387444 0)
(1.04462 0.0777114 0)
(1.02626 0.0600059 0)
(1.0695 0.0913142 0)
(1.04796 0.0754147 0)
(1.0941 0.0990689 0)
(1.07083 0.0854078 0)
(1.11643 0.10191 0)
(1.093 0.0907899 0)
(1.13553 0.100556 0)
(1.1133 0.0923239 0)
(1.15065 0.0956897 0)
(1.131 0.0904021 0)
(1.16156 0.0884415 0)
(1.14544 0.0855734 0)
(1.16886 0.0793779 0)
(1.15634 0.0789383 0)
(1.17315 0.0685409 0)
(1.16429 0.0705362 0)
(1.17478 0.056635 0)
(1.16975 0.060632 0)
(1.17418 0.0445264 0)
(1.1722 0.050027 0)
(1.17229 0.0325402 0)
(1.17312 0.0387863 0)
(1.1697 0.0208453 0)
(1.17229 0.027144 0)
(1.16686 0.0095657 0)
(1.17074 0.0157948 0)
(1.16415 -0.00145918 0)
(1.16884 0.00483067 0)
(1.16198 -0.0124654 0)
(1.16678 -0.00609797 0)
(1.16059 -0.0238127 0)
(1.16495 -0.0172496 0)
(1.16019 -0.0358524 0)
(1.16354 -0.0290668 0)
(1.16097 -0.0488512 0)
(1.16273 -0.0418875 0)
(1.16303 -0.0637694 0)
(1.16276 -0.0561251 0)
(1.16676 -0.0820525 0)
(1.1638 -0.0733295 0)
(1.17316 -0.104332 0)
(1.16645 -0.0944775 0)
(1.18302 -0.131177 0)
(1.17125 -0.119956 0)
(1.19727 -0.163701 0)
(1.17915 -0.151269 0)
(1.21778 -0.203024 0)
(1.19151 -0.189807 0)
(1.24714 -0.25015 0)
(1.21039 -0.237028 0)
(1.28903 -0.30566 0)
(1.23892 -0.29438 0)
(1.34845 -0.36929 0)
(1.28123 -0.362875 0)
(1.43226 -0.434945 0)
(1.34408 -0.442778 0)
(1.5312 -0.480546 0)
(1.42585 -0.508672 0)
(1.61863 -0.481769 0)
(1.49917 -0.519351 0)
(1.67446 -0.44272 0)
(1.47882 -0.470611 0)
(1.71555 -0.354855 0)
(1.43156 -0.39902 0)
(1.68144 -0.205672 0)
(1.32636 -0.212745 0)
(1.63502 -0.0377896 0)
(1.20266 -0.0509608 1.43571e-18)
(1.63647 0.111107 0)
(1.18438 0.0473727 -8.03336e-19)
(1.66044 0.24536 0)
(1.24346 0.151138 6.25507e-20)
(1.67519 0.362605 0)
(1.3021 0.273487 0)
(1.66978 0.445786 0)
(1.40465 0.384672 0)
(1.63277 0.482658 0)
(1.47086 0.470561 0)
(1.57711 0.476155 0)
(1.47868 0.497447 0)
(1.51266 0.439662 0)
(1.4543 0.4826 0)
(1.44363 0.384364 0)
(1.41526 0.441907 0)
(1.3785 0.320776 0)
(1.36754 0.381171 0)
(1.32247 0.257743 0)
(1.32015 0.31309 0)
(1.27742 0.201376 0)
(1.27937 0.247615 0)
(1.24248 0.154117 0)
(1.24701 0.190901 0)
(1.21609 0.11607 0)
(1.22217 0.144383 0)
(1.19649 0.0862407 0)
(1.20354 0.107656 0)
(1.18206 0.0632716 0)
(1.1898 0.0793665 0)
(1.17149 0.0461186 0)
(1.17973 0.0579372 0)
(1.16381 0.0336738 0)
(1.17238 0.0422001 0)
(1.15835 0.0244987 0)
(1.16722 0.0305837 0)
(1.15442 0.0176955 0)
(1.16342 0.0220458 0)
(1.15151 0.0127568 0)
(1.16079 0.0159765 0)
(1.14937 0.00917986 0)
(1.15889 0.0115761 0)
(1.1478 0.00659748 0)
(1.15746 0.00835748 0)
(1.14664 0.00473998 0)
(1.15641 0.00603246 0)
(1.14579 0.00339803 0)
(1.15562 0.00433621 0)
(1.14517 0.00242717 0)
(1.15503 0.00310366 0)
(1.14471 0.00172649 0)
(1.1546 0.00221411 0)
(1.14438 0.00122258 0)
(1.15428 0.00157386 0)
(1.14413 0.000861387 0)
(1.15404 0.00111466 0)
(1.14395 0.000603538 0)
(1.15387 0.000785844 0)
(1.14382 0.000420585 0)
(1.15374 0.000551545 0)
(1.14372 0.000291797 0)
(1.15365 0.00038552 0)
(1.14365 0.00020212 0)
(1.15358 0.000268822 0)
(1.1436 0.000140572 0)
(1.15353 0.000187728 0)
(1.14356 9.94977e-05 0)
(1.15349 0.000132111 0)
(1.14353 7.30665e-05 0)
(1.15346 9.55044e-05 0)
(1.14351 5.82807e-05 0)
(1.15344 7.17076e-05 0)
(1.14349 5.08533e-05 0)
(1.15343 6.05562e-05 0)
(1.15341 5.26298e-05 0)
(1.00373 0.0218344 0)
(1.00091 0.00932157 0)
(1.01457 0.0416646 0)
(1.00629 0.0279043 0)
(1.03058 0.057666 0)
(1.01804 0.0439925 0)
(1.04959 0.0693255 0)
(1.03404 0.056411 0)
(1.06982 0.0769416 0)
(1.05206 0.0651767 0)
(1.08991 0.0810261 0)
(1.07073 0.0706942 0)
(1.10888 0.0819967 0)
(1.08913 0.073353 0)
(1.12584 0.0802146 0)
(1.10653 0.0734452 0)
(1.14014 0.0761518 0)
(1.12212 0.071275 0)
(1.15181 0.0701896 0)
(1.13553 0.0672647 0)
(1.1608 0.0625522 0)
(1.14667 0.0615474 0)
(1.16716 0.0537949 0)
(1.15549 0.0542782 0)
(1.17113 0.0441493 0)
(1.16183 0.0460551 0)
(1.17305 0.0334632 0)
(1.16632 0.0368601 0)
(1.17333 0.0222469 0)
(1.1686 0.0268649 0)
(1.17267 0.0112052 0)
(1.16946 0.016459 0)
(1.1714 0.000356564 0)
(1.16923 0.00609741 0)
(1.16973 -0.0106907 0)
(1.16808 -0.00442476 0)
(1.16788 -0.0222951 0)
(1.16633 -0.0154006 0)
(1.16603 -0.0348467 0)
(1.16413 -0.0272143 0)
(1.1644 -0.048838 0)
(1.1616 -0.0402585 0)
(1.16344 -0.0652913 0)
(1.15897 -0.0551628 0)
(1.1633 -0.0853126 0)
(1.15653 -0.0731893 0)
(1.1642 -0.109646 0)
(1.15426 -0.0953759 0)
(1.16696 -0.139551 0)
(1.15255 -0.122722 6.66654e-33)
(1.17267 -0.176803 0)
(1.15217 -0.156976 -6.62006e-33)
(1.183 -0.223224 0)
(1.15422 -0.200137 0)
(1.20049 -0.280815 0)
(1.16037 -0.254521 0)
(1.22885 -0.351591 0)
(1.1732 -0.322738 0)
(1.27307 -0.437205 0)
(1.19619 -0.4071 0)
(1.33843 -0.519612 0)
(1.23388 -0.508136 0)
(1.39381 -0.551738 0)
(1.26495 -0.56405 0)
(1.3877 -0.503477 0)
(1.24355 -0.513237 6.9516e-19)
(1.21318 -0.388285 0)
(1.05932 -0.296096 0)
(1.09042 -0.213063 0)
(0.578672 0.366991 0)
(0.86386 -0.0563636 1.43571e-18)
(0.475708 0.20798 0)
(0.746626 0.00976817 6.32373e-19)
(0.375449 0.0841333 1.43571e-18)
(0.797379 0.0534771 -7.40785e-19)
(0.371331 0.0569761 -8.03336e-19)
(0.899524 0.117312 6.25507e-20)
(0.421452 0.0396829 6.25507e-20)
(1.02245 0.238633 0)
(0.46457 0.025332 0)
(1.20056 0.388403 0)
(0.888427 0.206568 0)
(1.3134 0.475334 0)
(1.05141 0.357713 0)
(1.35427 0.498405 0)
(1.17745 0.456577 0)
(1.35795 0.481767 0)
(1.23173 0.478923 0)
(1.3398 0.436843 0)
(1.2523 0.460055 0)
(1.30966 0.372323 0)
(1.25276 0.411315 0)
(1.27763 0.302343 0)
(1.24042 0.345114 0)
(1.24949 0.236887 0)
(1.2246 0.275757 0)
(1.227 0.181134 0)
(1.21046 0.213392 0)
(1.20975 0.136051 0)
(1.19906 0.161631 0)
(1.1969 0.100883 0)
(1.19029 0.120512 0)
(1.18749 0.0740997 0)
(1.18379 0.0887739 0)
(1.18065 0.0540874 0)
(1.17905 0.0647736 0)
(1.17573 0.0392127 0)
(1.17567 0.0471216 0)
(1.17224 0.0282148 0)
(1.17326 0.0340725 0)
(1.16982 0.0203718 0)
(1.17156 0.0244696 0)
(1.16814 0.0148526 0)
(1.17044 0.0176538 0)
(1.16696 0.0108308 0)
(1.16966 0.0127583 0)
(1.16607 0.00785266 0)
(1.16911 0.00924873 0)
(1.16537 0.0056607 0)
(1.1687 0.00672687 0)
(1.16485 0.00405557 0)
(1.16838 0.00486271 0)
(1.16445 0.00289463 0)
(1.16812 0.00349817 0)
(1.16416 0.00206228 0)
(1.16793 0.00250649 0)
(1.16394 0.001467 0)
(1.16779 0.00179133 0)
(1.16378 0.00104123 0)
(1.16768 0.00127641 0)
(1.16366 0.000736675 0)
(1.16759 0.000905492 0)
(1.16357 0.000519388 0)
(1.16753 0.000640477 0)
(1.16351 0.000365188 0)
(1.16747 0.000451647 0)
(1.16346 0.000256661 0)
(1.16744 0.000318142 0)
(1.16342 0.00018105 0)
(1.16741 0.000224535 0)
(1.16339 0.000129474 0)
(1.16739 0.000159448 0)
(1.16337 9.51258e-05 0)
(1.16737 0.000115695 0)
(1.16336 7.46116e-05 0)
(1.16736 8.63613e-05 0)
(1.16335 6.26263e-05 0)
(1.16735 7.13114e-05 0)
(1.16734 5.94769e-05 0)
(1.00259 0.0157937 0)
(1.00066 0.00672919 0)
(1.01032 0.0304582 0)
(1.00456 0.0201732 0)
(1.02217 0.0427527 0)
(1.01327 0.0321484 0)
(1.03681 0.0521614 0)
(1.0255 0.0417716 0)
(1.05309 0.0587751 0)
(1.03981 0.0488977 0)
(1.07004 0.062858 0)
(1.05525 0.0537357 0)
(1.08687 0.0646533 0)
(1.07112 0.0565243 0)
(1.10287 0.0643788 0)
(1.0868 0.0574489 0)
(1.11748 0.0622723 0)
(1.10166 0.0566646 0)
(1.1304 0.0585221 0)
(1.11529 0.0543435 0)
(1.14137 0.0532544 0)
(1.12738 0.0505815 0)
(1.15017 0.0466658 0)
(1.13769 0.0454734 0)
(1.15697 0.0389493 0)
(1.14608 0.0392536 0)
(1.16184 0.0303611 0)
(1.15263 0.0319937 0)
(1.16477 0.0211257 0)
(1.15724 0.0239379 0)
(1.16597 0.0114237 0)
(1.16001 0.0152584 0)
(1.16586 0.00141642 0)
(1.16111 0.00620335 0)
(1.16469 -0.00900222 0)
(1.16076 -0.00325162 0)
(1.16259 -0.0201383 0)
(1.15914 -0.0133051 0)
(1.15967 -0.0324022 0)
(1.15631 -0.0242933 0)
(1.15608 -0.0463444 0)
(1.15232 -0.0366632 0)
(1.152 -0.0628174 0)
(1.14723 -0.0510813 0)
(1.14739 -0.0829448 0)
(1.14103 -0.0685787 0)
(1.14234 -0.107996 6.66654e-33)
(1.13359 -0.0903272 0)
(1.13733 -0.139529 5.25321e-35)
(1.12494 -0.117716 6.66654e-33)
(1.133 -0.179552 -6.62006e-33)
(1.11531 -0.152643 -6.62006e-33)
(1.13038 -0.230555 0)
(1.10509 -0.197513 0)
(1.13109 -0.295535 0)
(1.09488 -0.255232 0)
(1.13758 -0.377622 0)
(1.08561 -0.329233 0)
(1.15233 -0.477503 0)
(1.07939 -0.421848 0)
(1.16309 -0.551462 0)
(1.06588 -0.5189 0)
(1.11176 -0.5187 6.9516e-19)
(1.01402 -0.512716 4.47167e-19)
(0.980822 -0.320827 6.9516e-19)
(0.869656 -0.334372 -2.0334e-18)
(0.96782 -0.087746 0)
(0.407298 0.215539 0)
(0.467174 0 0)
(0 -0.0573824 0)
(0.222927 0 0)
(0 -0.0166901 0)
(0.191092 0 0)
(0 0.00189657 0)
(0.214066 0 0)
(0 0.00957025 0)
(0.28043 0 0)
(0 0.0169839 0)
(0.572741 0.0475251 0)
(0 0.0224148 0)
(0.729144 0.179736 0)
(0.324919 0.0222587 0)
(0.909711 0.336147 0)
(0.695215 0.168099 0)
(1.05143 0.432974 0)
(0.854353 0.31486 0)
(1.12658 0.455434 0)
(0.97749 0.403771 0)
(1.16663 0.433621 0)
(1.04835 0.42001 0)
(1.18407 0.383594 0)
(1.09595 0.393871 0)
(1.18814 0.318394 0)
(1.1245 0.341043 0)
(1.18633 0.252265 0)
(1.14066 0.277566 0)
(1.18302 0.193876 0)
(1.15033 0.216698 0)
(1.17985 0.146037 0)
(1.15664 0.164801 0)
(1.17731 0.10837 0)
(1.16096 0.123059 0)
(1.17542 0.0794854 0)
(1.16403 0.0906653 0)
(1.17407 0.0578836 0)
(1.16627 0.0661225 0)
(1.17318 0.0420024 0)
(1.16795 0.0480109 0)
(1.17258 0.0302871 0)
(1.16923 0.034671 0)
(1.17216 0.0217371 0)
(1.1702 0.0248849 0)
(1.17191 0.0155851 0)
(1.17089 0.017903 0)
(1.1718 0.0112066 0)
(1.17142 0.0128738 0)
(1.17174 0.00815783 0)
(1.17184 0.00930578 0)
(1.17169 0.00596906 0)
(1.17216 0.00677425 0)
(1.17164 0.00434377 0)
(1.17239 0.00491406 0)
(1.1716 0.0031425 0)
(1.17256 0.00354291 0)
(1.17156 0.00225753 0)
(1.17267 0.00254259 0)
(1.17152 0.00161303 0)
(1.17274 0.00183069 0)
(1.17148 0.00114731 0)
(1.17278 0.00131346 0)
(1.17145 0.000812704 0)
(1.17281 0.000937924 0)
(1.17143 0.000574611 0)
(1.17282 0.000667415 0)
(1.1714 0.000405855 0)
(1.17283 0.000473362 0)
(1.17139 0.000286935 0)
(1.17283 0.000335547 0)
(1.17137 0.000203671 0)
(1.17283 0.000238347 0)
(1.17136 0.000146304 0)
(1.17283 0.000170028 0)
(1.17135 0.000107438 0)
(1.17283 0.000123504 0)
(1.17135 8.33935e-05 0)
(1.17283 9.18611e-05 0)
(1.17134 6.83452e-05 0)
(1.17283 7.48848e-05 0)
(1.17283 6.05775e-05 0)
(1.00196 0.0113536 0)
(1.00052 0.00477112 0)
(1.00783 0.0220282 0)
(1.00356 0.0142989 0)
(1.01704 0.0312123 0)
(1.0104 0.0229367 0)
(1.02874 0.0384751 0)
(1.02021 0.0300761 0)
(1.0421 0.0437915 0)
(1.03199 0.0355391 0)
(1.05643 0.0473147 0)
(1.04502 0.0394047 0)
(1.07113 0.0492158 0)
(1.05878 0.0418211 0)
(1.08565 0.0496251 0)
(1.07278 0.0429315 0)
(1.09949 0.0486399 0)
(1.08653 0.042822 0)
(1.11229 0.0463306 0)
(1.0996 0.0415454 0)
(1.12374 0.0427525 0)
(1.11167 0.0391365 0)
(1.13358 0.0380063 0)
(1.12244 0.0356283 0)
(1.14173 0.0322228 0)
(1.13169 0.0311093 0)
(1.14805 0.025537 0)
(1.13927 0.0256707 0)
(1.15252 0.0181036 0)
(1.14505 0.019468 0)
(1.15514 0.0100953 0)
(1.14898 0.0126357 0)
(1.15601 0.00160487 0)
(1.15103 0.00533996 0)
(1.15523 -0.00745672 0)
(1.15125 -0.0024804 0)
(1.15289 -0.0173328 0)
(1.14963 -0.0109573 0)
(1.14897 -0.0283959 0)
(1.14618 -0.0203735 0)
(1.14345 -0.0411915 0)
(1.1408 -0.031146 0)
(1.13626 -0.0565337 0)
(1.13334 -0.0438904 0)
(1.12719 -0.0755101 0)
(1.12354 -0.0595067 0)
(1.11602 -0.0994541 0)
(1.111 -0.0791565 0)
(1.1026 -0.130073 0)
(1.09526 -0.104298 8.7718e-34)
(1.08679 -0.169597 0)
(1.07579 -0.136838 -8.76174e-34)
(1.06849 -0.220782 0)
(1.05196 -0.179213 0)
(1.04747 -0.286868 0)
(1.02279 -0.234213 0)
(1.0231 -0.369869 0)
(0.987402 -0.30486 0)
(0.989987 -0.459178 0)
(0.942664 -0.388734 0)
(0.925615 -0.471698 4.47167e-19)
(0.868862 -0.454528 0)
(0.788319 -0.311668 -2.28139e-18)
(0.755382 -0.354794 4.47167e-19)
(0.952376 -0.091314 -2.72856e-18)
(0.335595 0.255295 -2.72856e-18)
(0.196539 0 0)
(0 -0.0339778 0)
(0.001618 0 0)
(0 6.20523e-05 0)
(0.00348267 0 0)
(0 9.56608e-05 0)
(0.00913342 0 0)
(0 4.98296e-05 0)
(0.02725 0 0)
(0 0.000571198 0)
(0.0839071 0 0)
(0 0.00098943 0)
(0.209551 0 0)
(0 0.00319411 0)
(0.432272 0.0380475 0)
(0 0.00697189 0)
(0.618327 0.151736 0)
(0.284435 0.0394335 0)
(0.778977 0.288851 0)