/*--------------------------------*- C++ -*----------------------------------*\
| =========                 |                                                 |
| \\      /  F ield         | OpenFOAM: The Open Source CFD Toolbox           |
|  \\    /   O peration     | Version:  2206                                  |
|   \\  /    A nd           | Website:  www.openfoam.com                      |
|    \\/     M anipulation  |                                                 |
\*---------------------------------------------------------------------------*/
FoamFile
{
    version     2.0;
    format      ascii;
    arch        "LSB;label=32;scalar=64";
    class       volScalarField;
    location    "0.3";
    object      k;
}
// * * * * * * * * * * * * * * * * * * * * * * * * * * * * * * * * * * * * * //

dimensions      [0 2 -2 0 0 0 0];

internalField   nonuniform List<scalar> 
1875
(
8.5531e-05
5.32513e-05
3.806e-05
3.04026e-05
2.66849e-05
2.52407e-05
2.49033e-05
2.49574e-05
2.50814e-05
2.51748e-05
2.52256e-05
2.52459e-05
2.52491e-05
2.52432e-05
2.52355e-05
2.5229e-05
2.52254e-05
2.52253e-05
2.52284e-05
2.52341e-05
2.52416e-05
2.5249e-05
2.52534e-05
2.52504e-05
2.52347e-05
2.52029e-05
2.5156e-05
2.51031e-05
2.50611e-05
2.50519e-05
2.50954e-05
2.52014e-05
2.53636e-05
2.55465e-05
2.57069e-05
2.58239e-05
2.58867e-05
2.58952e-05
2.58595e-05
2.57945e-05
2.5715e-05
2.56323e-05
2.55536e-05
2.54827e-05
2.5421e-05
2.53684e-05
2.53242e-05
2.52875e-05
2.52572e-05
2.52324e-05
2.52122e-05
2.51958e-05
2.51826e-05
2.51721e-05
2.51636e-05
2.51569e-05
2.51515e-05
2.51473e-05
2.5144e-05
2.51413e-05
2.51393e-05
2.51376e-05
2.51363e-05
2.51353e-05
2.51346e-05
2.5134e-05
2.51335e-05
2.51331e-05
2.51329e-05
2.51327e-05
2.51325e-05
2.51324e-05
2.51323e-05
2.51316e-05
2.51293e-05
8.51424e-05
5.37727e-05
3.80582e-05
2.94323e-05
2.47113e-05
2.22564e-05
2.11981e-05
2.09202e-05
2.10037e-05
2.12039e-05
2.13996e-05
2.15477e-05
2.16444e-05
2.16981e-05
2.17207e-05
2.1724e-05
2.17162e-05
2.1702e-05
2.16834e-05
2.16608e-05
2.16332e-05
2.15972e-05
2.1547e-05
2.14725e-05
2.13601e-05
2.11953e-05
2.09683e-05
2.06815e-05
2.03544e-05
2.0025e-05
1.97448e-05
1.95677e-05
1.95318e-05
1.96414e-05
1.98579e-05
2.01419e-05
2.04497e-05
2.07436e-05
2.09993e-05
2.12065e-05
2.13653e-05
2.14818e-05
2.15644e-05
2.16213e-05
2.16595e-05
2.16846e-05
2.17007e-05
2.17108e-05
2.1717e-05
2.17206e-05
2.17226e-05
2.17236e-05
2.17241e-05
2.17241e-05
2.1724e-05
2.17237e-05
2.17234e-05
2.17231e-05
2.17229e-05
2.17226e-05
2.17223e-05
2.17221e-05
2.1722e-05
2.17218e-05
2.17217e-05
2.17216e-05
2.17215e-05
2.17214e-05
2.17213e-05
2.17213e-05
2.17213e-05
2.17212e-05
2.17209e-05
2.17188e-05
2.1707e-05
8.50368e-05
5.36406e-05
3.80199e-05
2.9194e-05
2.39512e-05
2.08695e-05
1.91883e-05
1.84125e-05
1.81692e-05
1.82086e-05
1.83639e-05
1.85391e-05
1.86886e-05
1.87982e-05
1.88713e-05
1.89142e-05
1.89356e-05
1.8943e-05
1.8941e-05
1.89317e-05
1.89142e-05
1.88827e-05
1.88245e-05
1.87171e-05
1.85288e-05
1.82235e-05
1.77733e-05
1.71716e-05
1.64459e-05
1.56627e-05
1.49239e-05
1.43485e-05
1.4041e-05
1.40529e-05
1.43498e-05
1.48626e-05
1.5503e-05
1.618e-05
1.68216e-05
1.73812e-05
1.78378e-05
1.81899e-05
1.84489e-05
1.86317e-05
1.8756e-05
1.8838e-05
1.88908e-05
1.8924e-05
1.89447e-05
1.89575e-05
1.89654e-05
1.89704e-05
1.89736e-05
1.89757e-05
1.8977e-05
1.8978e-05
1.89786e-05
1.8979e-05
1.89794e-05
1.89796e-05
1.89797e-05
1.89798e-05
1.89799e-05
1.898e-05
1.898e-05
1.898e-05
1.898e-05
1.898e-05
1.898e-05
1.898e-05
1.898e-05
1.898e-05
1.89796e-05
1.89777e-05
1.89673e-05
8.49886e-05
5.33799e-05
3.77383e-05
2.8928e-05
2.36237e-05
2.03937e-05
1.85015e-05
1.7495e-05
1.70604e-05
1.6968e-05
1.70526e-05
1.72043e-05
1.73589e-05
1.7488e-05
1.75837e-05
1.76497e-05
1.76918e-05
1.77167e-05
1.7729e-05
1.77297e-05
1.77137e-05
1.76654e-05
1.75533e-05
1.73267e-05
1.69199e-05
1.6267e-05
1.53267e-05
1.41061e-05
1.26755e-05
1.11699e-05
9.77149e-06
8.66686e-06
8.00515e-06
7.8767e-06
8.26915e-06
9.09423e-06
1.02171e-05
1.14893e-05
1.27751e-05
1.3965e-05
1.49883e-05
1.58142e-05
1.64441e-05
1.69007e-05
1.72168e-05
1.74267e-05
1.75609e-05
1.76439e-05
1.76936e-05
1.77226e-05
1.77391e-05
1.77484e-05
1.77535e-05
1.77563e-05
1.77579e-05
1.77588e-05
1.77593e-05
1.77596e-05
1.77598e-05
1.77599e-05
1.776e-05
1.77601e-05
1.77601e-05
1.77601e-05
1.77602e-05
1.77602e-05
1.77602e-05
1.77602e-05
1.77602e-05
1.77602e-05
1.77602e-05
1.77602e-05
1.77598e-05
1.77579e-05
1.77477e-05
8.49686e-05
5.32218e-05
3.7477e-05
2.86491e-05
2.33593e-05
2.0136e-05
1.82303e-05
1.71951e-05
1.67254e-05
1.65983e-05
1.66549e-05
1.67888e-05
1.69369e-05
1.70672e-05
1.71685e-05
1.72409e-05
1.72897e-05
1.73201e-05
1.73345e-05
1.73285e-05
1.72842e-05
1.71616e-05
1.68904e-05
1.63735e-05
1.55073e-05
1.4219e-05
1.25054e-05
1.04617e-05
8.27531e-06
6.19525e-06
4.45816e-06
3.20464e-06
2.4597e-06
2.22919e-06
2.53514e-06
3.35537e-06
4.6212e-06
6.23622e-06
8.06586e-06
9.94055e-06
1.17013e-05
1.32326e-05
1.4476e-05
1.54252e-05
1.61113e-05
1.65833e-05
1.68939e-05
1.70903e-05
1.72101e-05
1.72808e-05
1.73213e-05
1.73439e-05
1.73562e-05
1.73626e-05
1.7366e-05
1.73677e-05
1.73685e-05
1.73689e-05
1.73691e-05
1.73692e-05
1.73692e-05
1.73693e-05
1.73693e-05
1.73693e-05
1.73693e-05
1.73693e-05
1.73693e-05
1.73693e-05
1.73693e-05
1.73693e-05
1.73693e-05
1.73693e-05
1.73689e-05
1.7367e-05
1.73563e-05
8.49601e-05
5.31421e-05
3.73132e-05
2.84429e-05
2.31533e-05
1.99546e-05
1.80804e-05
1.70716e-05
1.66179e-05
1.64978e-05
1.65557e-05
1.6689e-05
1.68359e-05
1.69656e-05
1.7067e-05
1.71398e-05
1.71886e-05
1.7217e-05
1.72222e-05
1.71869e-05
1.70663e-05
1.67758e-05
1.61911e-05
1.51758e-05
1.3635e-05
1.15728e-05
9.12669e-06
6.56143e-06
4.20581e-06
2.35773e-06
1.14885e-06
5.07838e-07
2.03888e-07
1.22022e-07
1.79601e-07
4.3913e-07
1.05082e-06
2.1372e-06
3.73274e-06
5.72688e-06
7.9118e-06
1.00586e-05
1.198e-05
1.35662e-05
1.47868e-05
1.56703e-05
1.62764e-05
1.66731e-05
1.6922e-05
1.70726e-05
1.71607e-05
1.72107e-05
1.72383e-05
1.72531e-05
1.72609e-05
1.72649e-05
1.72668e-05
1.72678e-05
1.72683e-05
1.72685e-05
1.72685e-05
1.72686e-05
1.72686e-05
1.72686e-05
1.72686e-05
1.72686e-05
1.72686e-05
1.72686e-05
1.72686e-05
1.72686e-05
1.72686e-05
1.72685e-05
1.72682e-05
1.72663e-05
1.72552e-05
8.49563e-05
5.31029e-05
3.72233e-05
2.83168e-05
2.30172e-05
1.98313e-05
1.79832e-05
1.70032e-05
1.65736e-05
1.64699e-05
1.65364e-05
1.66725e-05
1.68193e-05
1.69479e-05
1.7048e-05
1.71195e-05
1.71656e-05
1.71863e-05
1.71682e-05
1.70692e-05
1.68006e-05
1.62211e-05
1.51668e-05
1.35206e-05
1.12898e-05
8.64547e-06
5.90398e-06
3.44849e-06
1.60808e-06
5.41327e-07
1.90359e-07
3.41994e-07
1.35915e-08
2.07339e-09
4.00464e-09
1.79543e-08
8.41892e-08
3.73511e-07
1.14032e-06
2.53469e-06
4.48745e-06
6.77828e-06
9.12402e-06
1.12734e-05
1.30687e-05
1.44557e-05
1.54584e-05
1.61434e-05
1.65888e-05
1.68664e-05
1.7033e-05
1.71297e-05
1.71842e-05
1.7214e-05
1.72299e-05
1.72382e-05
1.72424e-05
1.72445e-05
1.72456e-05
1.7246e-05
1.72462e-05
1.72463e-05
1.72464e-05
1.72464e-05
1.72464e-05
1.72464e-05
1.72464e-05
1.72464e-05
1.72464e-05
1.72464e-05
1.72464e-05
1.72463e-05
1.7246e-05
1.7244e-05
1.72329e-05
8.49544e-05
5.30831e-05
3.71746e-05
2.82438e-05
2.29338e-05
1.97529e-05
1.79205e-05
1.69605e-05
1.65493e-05
1.6459e-05
1.65335e-05
1.6673e-05
1.68204e-05
1.69481e-05
1.70468e-05
1.71163e-05
1.71574e-05
1.71629e-05
1.71008e-05
1.68915e-05
1.63921e-05
1.54176e-05
1.38159e-05
1.15692e-05
8.85166e-06
6.00705e-06
3.4499e-06
1.52729e-06
4.19847e-07
7.78323e-08
2.12463e-06
0.00015
0.00015
0.00015
0.00015
0.00015
2.28684e-09
2.27886e-08
1.74338e-07
7.90371e-07
2.09689e-06
4.05235e-06
6.41471e-06
8.86163e-06
1.11087e-05
1.29798e-05
1.44162e-05
1.54463e-05
1.61434e-05
1.65924e-05
1.68695e-05
1.70343e-05
1.71292e-05
1.71821e-05
1.7211e-05
1.72263e-05
1.72342e-05
1.72382e-05
1.72402e-05
1.72412e-05
1.72416e-05
1.72418e-05
1.72419e-05
1.72419e-05
1.7242e-05
1.7242e-05
1.7242e-05
1.7242e-05
1.7242e-05
1.7242e-05
1.7242e-05
1.72419e-05
1.72416e-05
1.72396e-05
1.72284e-05
8.49534e-05
5.30723e-05
3.71472e-05
2.82011e-05
2.28831e-05
1.97036e-05
1.78803e-05
1.69329e-05
1.65338e-05
1.64529e-05
1.65331e-05
1.66752e-05
1.68232e-05
1.69503e-05
1.70478e-05
1.71144e-05
1.71475e-05
1.71282e-05
1.69978e-05
1.66313e-05
1.58386e-05
1.44269e-05
1.23152e-05
9.62975e-06
6.70542e-06
3.98705e-06
1.86783e-06
5.56214e-07
8.68243e-08
3.93848e-07
0.00015
0.00015
0.00015
0.00015
0.00015
0.00015
0.00015
3.59197e-10
1.67936e-08
1.74826e-07
8.36375e-07
2.22117e-06
4.26693e-06
6.69935e-06
9.1753e-06
1.14093e-05
1.32377e-05
1.46185e-05
1.55935e-05
1.6244e-05
1.66574e-05
1.69096e-05
1.70578e-05
1.71423e-05
1.71891e-05
1.72143e-05
1.72276e-05
1.72344e-05
1.72379e-05
1.72396e-05
1.72404e-05
1.72408e-05
1.7241e-05
1.72411e-05
1.72411e-05
1.72411e-05
1.72411e-05
1.72411e-05
1.72411e-05
1.72411e-05
1.72411e-05
1.72411e-05
1.72408e-05
1.72388e-05
1.72276e-05
8.49528e-05
5.30661e-05
3.7131e-05
2.81754e-05
2.2852e-05
1.96725e-05
1.78542e-05
1.69145e-05
1.65233e-05
1.64485e-05
1.65326e-05
1.66766e-05
1.6825e-05
1.69517e-05
1.70479e-05
1.7111e-05
1.71327e-05
1.70789e-05
1.686e-05
1.63081e-05
1.52069e-05
1.33944e-05
1.08927e-05
7.96818e-06
5.06088e-06
2.63336e-06
1.00405e-06
2.7316e-07
2.29973e-06
0.00015
0.00015
0.00015
0.00015
0.00015
0.00015
0.00015
0.00015
0.00015
1.14362e-09
3.35886e-08
3.06635e-07
1.16963e-06
2.76892e-06
4.97236e-06
7.46625e-06
9.90662e-06
1.20365e-05
1.37304e-05
1.49782e-05
1.58403e-05
1.64046e-05
1.67573e-05
1.69692e-05
1.70922e-05
1.71615e-05
1.71994e-05
1.72197e-05
1.72303e-05
1.72357e-05
1.72384e-05
1.72398e-05
1.72404e-05
1.72407e-05
1.72409e-05
1.72409e-05
1.7241e-05
1.7241e-05
1.7241e-05
1.7241e-05
1.7241e-05
1.7241e-05
1.72409e-05
1.72406e-05
1.72387e-05
1.72275e-05
8.49525e-05
5.30624e-05
3.71214e-05
2.81601e-05
2.2833e-05
1.96532e-05
1.78376e-05
1.69025e-05
1.65161e-05
1.64452e-05
1.65319e-05
1.66771e-05
1.68258e-05
1.69522e-05
1.70471e-05
1.7106e-05
1.71138e-05
1.702e-05
1.6705e-05
1.59703e-05
1.45962e-05
1.24725e-05
9.7234e-06
6.71922e-06
3.95594e-06
1.88813e-06
7.76844e-07
6.2977e-07
0.00015
0.00015
0.00015
0.00015
0.00015
0.00015
0.00015
0.00015
0.00015
0.00015
0.00015
6.34989e-09
9.70766e-08
5.92559e-07
1.78749e-06
3.69558e-06
6.08082e-06
8.59639e-06
1.09259e-05
1.28693e-05
1.43578e-05
1.54198e-05
1.61339e-05
1.65905e-05
1.68702e-05
1.70353e-05
1.71296e-05
1.7182e-05
1.72104e-05
1.72254e-05
1.72332e-05
1.72371e-05
1.72391e-05
1.72401e-05
1.72405e-05
1.72408e-05
1.72409e-05
1.72409e-05
1.7241e-05
1.7241e-05
1.7241e-05
1.7241e-05
1.7241e-05
1.72409e-05
1.72406e-05
1.72386e-05
1.72274e-05
8.49523e-05
5.30604e-05
3.71162e-05
2.81517e-05
2.28225e-05
1.96425e-05
1.78283e-05
1.68958e-05
1.65122e-05
1.64437e-05
1.6532e-05
1.6678e-05
1.68268e-05
1.69529e-05
1.70465e-05
1.71013e-05
1.70956e-05
1.69642e-05
1.65654e-05
1.56848e-05
1.41135e-05
1.17897e-05
8.90941e-06
5.89942e-06
3.28873e-06
1.53949e-06
1.04689e-06
5.98872e-06
0.00015
0.00015
0.00015
0.00015
0.00015
0.00015
0.00015
0.00015
0.00015
0.00015
0.00015
7.23292e-10
2.09658e-08
2.51108e-07
1.08256e-06
2.70414e-06
4.96347e-06
7.51351e-06
9.98943e-06
1.21297e-05
1.38154e-05
1.50459e-05
1.58891e-05
1.64372e-05
1.67778e-05
1.69814e-05
1.70991e-05
1.71652e-05
1.72013e-05
1.72206e-05
1.72306e-05
1.72358e-05
1.72384e-05
1.72397e-05
1.72404e-05
1.72407e-05
1.72408e-05
1.72409e-05
1.72409e-05
1.7241e-05
1.7241e-05
1.7241e-05
1.7241e-05
1.72409e-05
1.72406e-05
1.72386e-05
1.72274e-05
8.49522e-05
5.30597e-05
3.71144e-05
2.81489e-05
2.28194e-05
1.96397e-05
1.78269e-05
1.68962e-05
1.65145e-05
1.64474e-05
1.65364e-05
1.66825e-05
1.68311e-05
1.69564e-05
1.70489e-05
1.71009e-05
1.70877e-05
1.69371e-05
1.6499e-05
1.55558e-05
1.39068e-05
1.15098e-05
8.59064e-06
5.59704e-06
3.05406e-06
1.38555e-06
9.10054e-07
3.9626e-06
0.00015
0.00015
0.00015
0.00015
0.00015
0.00015
0.00015
0.00015
0.00015
0.00015
0.00015
1.68762e-10
7.41944e-09
1.3723e-07
7.75523e-07
2.22758e-06
4.40456e-06
6.96005e-06
9.50256e-06
1.17385e-05
1.35231e-05
1.48401e-05
1.57515e-05
1.6349e-05
1.67234e-05
1.69489e-05
1.70803e-05
1.71545e-05
1.71954e-05
1.72174e-05
1.7229e-05
1.7235e-05
1.7238e-05
1.72395e-05
1.72403e-05
1.72406e-05
1.72408e-05
1.72409e-05
1.72409e-05
1.7241e-05
1.7241e-05
1.7241e-05
1.7241e-05
1.72409e-05
1.72406e-05
1.72386e-05
1.72274e-05
8.49523e-05
5.30604e-05
3.71162e-05
2.81519e-05
2.28237e-05
1.96455e-05
1.78342e-05
1.69049e-05
1.65242e-05
1.64576e-05
1.65465e-05
1.66919e-05
1.68394e-05
1.69636e-05
1.70553e-05
1.71077e-05
1.70987e-05
1.69623e-05
1.6558e-05
1.56746e-05
1.41063e-05
1.17902e-05
8.91943e-06
5.9193e-06
3.32315e-06
1.60893e-06
1.26419e-06
5.99674e-06
0.00015
0.00015
0.00015
0.00015
0.00015
0.00015
0.00015
0.00015
0.00015
0.00015
0.00015
6.2446e-10
1.89491e-08
2.31002e-07
1.01971e-06
2.59013e-06
4.80482e-06
7.32683e-06
9.79632e-06
1.19502e-05
1.36628e-05
1.49257e-05
1.58003e-05
1.63752e-05
1.67365e-05
1.6955e-05
1.70829e-05
1.71556e-05
1.71958e-05
1.72175e-05
1.7229e-05
1.7235e-05
1.7238e-05
1.72395e-05
1.72403e-05
1.72407e-05
1.72408e-05
1.72409e-05
1.7241e-05
1.7241e-05
1.7241e-05
1.7241e-05
1.7241e-05
1.72409e-05
1.72406e-05
1.72386e-05
1.72274e-05
8.49525e-05
5.30624e-05
3.71214e-05
2.81606e-05
2.28354e-05
1.96593e-05
1.7849e-05
1.692e-05
1.65389e-05
1.64715e-05
1.65591e-05
1.67032e-05
1.68492e-05
1.69722e-05
1.70634e-05
1.71182e-05
1.7121e-05
1.70199e-05
1.66965e-05
1.59569e-05
1.45873e-05
1.24782e-05
9.74779e-06
6.76072e-06
4.02145e-06
2.01849e-06
1.16157e-06
6.10507e-07
0.00015
0.00015
0.00015
0.00015
0.00015
0.00015
0.00015
0.00015
0.00015
0.00015
0.00015
5.60332e-09
8.81795e-08
5.44012e-07
1.67201e-06
3.50467e-06
5.82237e-06
8.2944e-06
1.0614e-05
1.25795e-05
1.41117e-05
1.52262e-05
1.59911e-05
1.64908e-05
1.68039e-05
1.69931e-05
1.71037e-05
1.71667e-05
1.72016e-05
1.72205e-05
1.72305e-05
1.72357e-05
1.72384e-05
1.72398e-05
1.72404e-05
1.72407e-05
1.72409e-05
1.7241e-05
1.7241e-05
1.7241e-05
1.7241e-05
1.7241e-05
1.7241e-05
1.72409e-05
1.72406e-05
1.72386e-05
1.72274e-05
8.49528e-05
5.30661e-05
3.71311e-05
2.81764e-05
2.28557e-05
1.96817e-05
1.78713e-05
1.69404e-05
1.65568e-05
1.64867e-05
1.6572e-05
1.6714e-05
1.68584e-05
1.698e-05
1.70709e-05
1.71286e-05
1.71443e-05
1.70827e-05
1.68542e-05
1.62953e-05
1.51973e-05
1.34023e-05
1.09258e-05
8.02108e-06
5.12852e-06
2.73404e-06
1.23015e-06
3.09076e-07
2.27855e-06
0.00015
0.00015
0.00015
0.00015
0.00015
0.00015
0.00015
0.00015
0.00015
9.83772e-10
3.01934e-08
2.84554e-07
1.09688e-06
2.61749e-06
4.72862e-06
7.14058e-06
9.53268e-06
1.1658e-05
1.33858e-05
1.46908e-05
1.56177e-05
1.62426e-05
1.66455e-05
1.68956e-05
1.70457e-05
1.71331e-05
1.71826e-05
1.72101e-05
1.7225e-05
1.72328e-05
1.7237e-05
1.7239e-05
1.72401e-05
1.72406e-05
1.72408e-05
1.7241e-05
1.7241e-05
1.7241e-05
1.7241e-05
1.7241e-05
1.7241e-05
1.7241e-05
1.72409e-05
1.72406e-05
1.72387e-05
1.72275e-05
8.49534e-05
5.30723e-05
3.71473e-05
2.82025e-05
2.28884e-05
1.97163e-05
1.79034e-05
1.69675e-05
1.65781e-05
1.65029e-05
1.65842e-05
1.67234e-05
1.68657e-05
1.6986e-05
1.70766e-05
1.71367e-05
1.71631e-05
1.71361e-05
1.6996e-05
1.66206e-05
1.58273e-05
1.4431e-05
1.23487e-05
9.69302e-06
6.78772e-06
4.08217e-06
2.00229e-06
7.9762e-07
1.05649e-07
3.5987e-07
0.00015
0.00015
0.00015
0.00015
0.00015
0.00015
0.00015
3.0258e-10
1.48529e-08
1.6086e-07
7.80267e-07
2.08772e-06
4.02824e-06
6.35333e-06
8.75167e-06
1.09575e-05
1.28075e-05
1.42457e-05
1.52947e-05
1.60198e-05
1.64985e-05
1.68022e-05
1.69883e-05
1.7099e-05
1.71629e-05
1.7199e-05
1.72189e-05
1.72296e-05
1.72353e-05
1.72383e-05
1.72398e-05
1.72405e-05
1.72409e-05
1.7241e-05
1.72411e-05
1.72411e-05
1.72411e-05
1.72411e-05
1.72411e-05
1.72411e-05
1.72411e-05
1.7241e-05
1.72407e-05
1.72387e-05
1.72275e-05
8.49544e-05
5.30831e-05
3.71749e-05
2.82458e-05
2.29409e-05
1.97694e-05
1.79502e-05
1.70042e-05
1.66045e-05
1.65205e-05
1.65955e-05
1.67306e-05
1.68705e-05
1.69896e-05
1.70798e-05
1.71415e-05
1.71756e-05
1.71739e-05
1.71031e-05
1.68841e-05
1.63795e-05
1.54135e-05
1.38397e-05
1.16329e-05
8.94991e-06
6.11584e-06
3.54479e-06
1.61278e-06
4.88098e-07
8.31931e-08
2.035e-06
0.00015
0.00015
0.00015
0.00015
0.00015
1.96162e-09
2.03076e-08
1.60284e-07
7.34152e-07
1.94883e-06
3.78173e-06
6.01896e-06
8.37104e-06
1.05768e-05
1.24638e-05
1.39602e-05
1.50737e-05
1.58585e-05
1.63867e-05
1.67281e-05
1.69411e-05
1.707e-05
1.71458e-05
1.71893e-05
1.72136e-05
1.7227e-05
1.72341e-05
1.72379e-05
1.72398e-05
1.72408e-05
1.72413e-05
1.72415e-05
1.72416e-05
1.72416e-05
1.72416e-05
1.72416e-05
1.72416e-05
1.72416e-05
1.72416e-05
1.72416e-05
1.72415e-05
1.72412e-05
1.72392e-05
1.7228e-05
8.49563e-05
5.31029e-05
3.72237e-05
2.83195e-05
2.30262e-05
1.98521e-05
1.80196e-05
1.70559e-05
1.66389e-05
1.65413e-05
1.6607e-05
1.67367e-05
1.68739e-05
1.69919e-05
1.7082e-05
1.71449e-05
1.71838e-05
1.7198e-05
1.71728e-05
1.70655e-05
1.67895e-05
1.62112e-05
1.51764e-05
1.3571e-05
1.1391e-05
8.78474e-06
6.05189e-06
3.58244e-06
1.71417e-06
6.4932e-07
1.86166e-07
2.57549e-08
4.45651e-09
1.93966e-09
3.74878e-09
1.64881e-08
7.80963e-08
3.47724e-07
1.06129e-06
2.3415e-06
4.14933e-06
6.30013e-06
8.54411e-06
1.06516e-05
1.24673e-05
1.39226e-05
1.50199e-05
1.58049e-05
1.63415e-05
1.66941e-05
1.69177e-05
1.70552e-05
1.71374e-05
1.71853e-05
1.72126e-05
1.72277e-05
1.7236e-05
1.72404e-05
1.72427e-05
1.72438e-05
1.72444e-05
1.72447e-05
1.72448e-05
1.72448e-05
1.72448e-05
1.72448e-05
1.72448e-05
1.72448e-05
1.72448e-05
1.72448e-05
1.72448e-05
1.72447e-05
1.72444e-05
1.72424e-05
1.72312e-05
8.49601e-05
5.3142e-05
3.73137e-05
2.84463e-05
2.31646e-05
1.99796e-05
1.81232e-05
1.71316e-05
1.66902e-05
1.65743e-05
1.66288e-05
1.67529e-05
1.68878e-05
1.70052e-05
1.70957e-05
1.71596e-05
1.72014e-05
1.72243e-05
1.72244e-05
1.71832e-05
1.70563e-05
1.6763e-05
1.61874e-05
1.52023e-05
1.3714e-05
1.17139e-05
9.31853e-06
6.77576e-06
4.40712e-06
2.51648e-06
1.23221e-06
5.20667e-07
2.14724e-07
1.25717e-07
1.77248e-07
4.21197e-07
9.93767e-07
1.99551e-06
3.45347e-06
5.28783e-06
7.33134e-06
9.38632e-06
1.12808e-05
1.2902e-05
1.42032e-05
1.51909e-05
1.59049e-05
1.63993e-05
1.67287e-05
1.6941e-05
1.70736e-05
1.71541e-05
1.72018e-05
1.72294e-05
1.7245e-05
1.72536e-05
1.72582e-05
1.72607e-05
1.72619e-05
1.72626e-05
1.72629e-05
1.7263e-05
1.7263e-05
1.7263e-05
1.7263e-05
1.7263e-05
1.7263e-05
1.7263e-05
1.7263e-05
1.7263e-05
1.72629e-05
1.72629e-05
1.72625e-05
1.72606e-05
1.72493e-05
8.49686e-05
5.32217e-05
3.74775e-05
2.86532e-05
2.33727e-05
2.01648e-05
1.82775e-05
1.72581e-05
1.67972e-05
1.66697e-05
1.67182e-05
1.68392e-05
1.6973e-05
1.70901e-05
1.71805e-05
1.72447e-05
1.72876e-05
1.73139e-05
1.73251e-05
1.73158e-05
1.72678e-05
1.71422e-05
1.68735e-05
1.63723e-05
1.55426e-05
1.43126e-05
1.26699e-05
1.06923e-05
8.54886e-06
6.47557e-06
4.70605e-06
3.39776e-06
2.59889e-06
2.308e-06
2.52693e-06
3.22847e-06
4.35503e-06
5.8198e-06
7.50501e-06
9.26912e-06
1.09731e-05
1.25072e-05
1.38051e-05
1.4844e-05
1.56359e-05
1.62134e-05
1.66181e-05
1.68917e-05
1.70708e-05
1.71845e-05
1.72548e-05
1.72971e-05
1.7322e-05
1.73363e-05
1.73444e-05
1.73488e-05
1.73512e-05
1.73524e-05
1.73531e-05
1.73534e-05
1.73535e-05
1.73535e-05
1.73536e-05
1.73535e-05
1.73535e-05
1.73535e-05
1.73535e-05
1.73535e-05
1.73535e-05
1.73535e-05
1.73535e-05
1.73534e-05
1.73531e-05
1.7351e-05
1.73397e-05
8.49885e-05
5.33796e-05
3.77386e-05
2.89325e-05
2.36386e-05
2.04246e-05
1.85487e-05
1.75528e-05
1.71193e-05
1.70184e-05
1.70883e-05
1.72232e-05
1.73624e-05
1.74791e-05
1.75659e-05
1.76259e-05
1.76646e-05
1.76874e-05
1.76983e-05
1.76977e-05
1.76802e-05
1.76304e-05
1.75184e-05
1.72977e-05
1.69085e-05
1.62905e-05
1.54027e-05
1.42462e-05
1.28784e-05
1.14189e-05
1.0036e-05
8.90976e-06
8.18634e-06
7.94875e-06
8.18555e-06
8.83445e-06
9.79261e-06
1.09337e-05
1.21354e-05
1.32948e-05
1.43377e-05
1.52223e-05
1.59349e-05
1.64834e-05
1.68885e-05
1.71767e-05
1.73749e-05
1.75069e-05
1.75924e-05
1.76464e-05
1.76796e-05
1.76996e-05
1.77114e-05
1.77183e-05
1.77222e-05
1.77245e-05
1.77257e-05
1.77264e-05
1.77267e-05
1.77269e-05
1.7727e-05
1.77271e-05
1.77271e-05
1.77271e-05
1.77271e-05
1.77271e-05
1.77271e-05
1.77271e-05
1.77271e-05
1.77271e-05
1.77271e-05
1.7727e-05
1.77267e-05
1.77246e-05
1.77131e-05
8.50367e-05
5.364e-05
3.80196e-05
2.91981e-05
2.39659e-05
2.08986e-05
1.92284e-05
1.84536e-05
1.82004e-05
1.82226e-05
1.83588e-05
1.85174e-05
1.86547e-05
1.87566e-05
1.88254e-05
1.88665e-05
1.88875e-05
1.88948e-05
1.88927e-05
1.88832e-05
1.8865e-05
1.88325e-05
1.87734e-05
1.8667e-05
1.84843e-05
1.8193e-05
1.77674e-05
1.72e-05
1.6512e-05
1.57596e-05
1.50318e-05
1.44353e-05
1.40667e-05
1.39775e-05
1.41486e-05
1.4536e-05
1.50752e-05
1.56902e-05
1.63121e-05
1.68898e-05
1.73919e-05
1.78056e-05
1.81312e-05
1.83775e-05
1.85572e-05
1.86842e-05
1.87716e-05
1.88301e-05
1.88684e-05
1.8893e-05
1.89087e-05
1.89185e-05
1.89246e-05
1.89283e-05
1.89307e-05
1.89322e-05
1.89331e-05
1.89337e-05
1.8934e-05
1.89343e-05
1.89344e-05
1.89345e-05
1.89346e-05
1.89346e-05
1.89346e-05
1.89347e-05
1.89347e-05
1.89347e-05
1.89347e-05
1.89347e-05
1.89347e-05
1.89346e-05
1.89342e-05
1.89319e-05
1.89201e-05
8.51423e-05
5.37719e-05
3.80572e-05
2.94344e-05
2.47216e-05
2.22743e-05
2.12151e-05
2.09262e-05
2.09931e-05
2.11772e-05
2.13613e-05
2.15031e-05
2.15976e-05
2.16518e-05
2.16761e-05
2.16811e-05
2.16747e-05
2.16611e-05
2.16425e-05
2.16193e-05
2.15904e-05
2.15527e-05
2.15003e-05
2.1424e-05
2.13111e-05
2.11489e-05
2.09289e-05
2.06528e-05
2.0337e-05
2.00133e-05
1.97255e-05
1.95209e-05
1.94356e-05
1.9479e-05
1.96265e-05
1.98523e-05
2.01243e-05
2.04088e-05
2.0679e-05
2.09179e-05
2.11177e-05
2.12775e-05
2.14005e-05
2.14921e-05
2.15582e-05
2.16045e-05
2.1636e-05
2.16569e-05
2.16703e-05
2.16787e-05
2.16837e-05
2.16866e-05
2.16882e-05
2.16889e-05
2.16892e-05
2.16892e-05
2.1689e-05
2.16888e-05
2.16886e-05
2.16883e-05
2.16881e-05
2.16879e-05
2.16877e-05
2.16876e-05
2.16875e-05
2.16874e-05
2.16873e-05
2.16872e-05
2.16871e-05
2.16871e-05
2.16871e-05
2.1687e-05
2.16866e-05
2.16841e-05
2.16717e-05
8.55315e-05
5.32535e-05
3.80654e-05
3.04092e-05
2.66855e-05
2.52278e-05
2.48746e-05
2.4917e-05
2.5036e-05
2.51305e-05
2.51861e-05
2.52125e-05
2.52216e-05
2.52207e-05
2.52164e-05
2.5212e-05
2.52095e-05
2.52094e-05
2.52118e-05
2.52163e-05
2.5222e-05
2.52271e-05
2.5229e-05
2.52235e-05
2.52061e-05
2.51741e-05
2.5129e-05
2.50789e-05
2.50381e-05
2.50243e-05
2.50533e-05
2.51328e-05
2.52591e-05
2.54037e-05
2.55327e-05
2.56321e-05
2.56937e-05
2.57155e-05
2.57028e-05
2.56651e-05
2.5613e-05
2.55545e-05
2.54959e-05
2.54405e-05
2.53901e-05
2.53455e-05
2.53067e-05
2.52735e-05
2.52454e-05
2.5222e-05
2.52026e-05
2.51867e-05
2.51737e-05
2.51633e-05
2.51549e-05
2.51482e-05
2.51429e-05
2.51387e-05
2.51353e-05
2.51327e-05
2.51306e-05
2.5129e-05
2.51277e-05
2.51267e-05
2.51259e-05
2.51253e-05
2.51248e-05
2.51244e-05
2.51241e-05
2.51239e-05
2.51238e-05
2.51237e-05
2.51232e-05
2.51206e-05
2.51074e-05
)
;

boundaryField
{
    ibCylinder
    {
        type            immersedBoundaryKqRWallFunction;
        patchType       immersedBoundary;
        setDeadValue    true;
        deadValue       0.00015;
        value           nonuniform List<scalar> 0();
    }
    in
    {
        type            fixedValue;
        value           uniform 0.00015;
    }
    out
    {
        type            inletOutlet;
        inletValue      uniform 0.00015;
        value           nonuniform List<scalar> 
25
(
2.51293e-05
2.1707e-05
1.89673e-05
1.77477e-05
1.73563e-05
1.72552e-05
1.72329e-05
1.72284e-05
1.72276e-05
1.72275e-05
1.72274e-05
1.72274e-05
1.72274e-05
1.72274e-05
1.72274e-05
1.72275e-05
1.72275e-05
1.7228e-05
1.72312e-05
1.72493e-05
1.73397e-05
1.77131e-05
1.89201e-05
2.16717e-05
2.51074e-05
)
;
    }
    top
    {
        type            zeroGradient;
    }
    bottom
    {
        type            zeroGradient;
    }
    frontAndBack
    {
        type            empty;
    }
}


// ************************************************************************* //
