/*--------------------------------*- C++ -*----------------------------------*\
| =========                 |                                                 |
| \\      /  F ield         | OpenFOAM: The Open Source CFD Toolbox           |
|  \\    /   O peration     | Version:  2206                                  |
|   \\  /    A nd           | Website:  www.openfoam.com                      |
|    \\/     M anipulation  |                                                 |
\*---------------------------------------------------------------------------*/
FoamFile
{
    version     2.0;
    format      ascii;
    arch        "LSB;label=32;scalar=64";
    class       volScalarField;
    location    "0.3";
    object      nut;
}
// * * * * * * * * * * * * * * * * * * * * * * * * * * * * * * * * * * * * * //

dimensions      [0 2 -1 0 0 0 0];

internalField   nonuniform List<scalar> 
1875
(
2.91443e-07
2.88506e-07
2.97064e-07
3.18614e-07
3.54209e-07
4.0091e-07
4.48892e-07
4.88703e-07
5.16755e-07
5.34354e-07
5.44529e-07
5.50064e-07
5.52917e-07
5.54282e-07
5.54883e-07
5.55104e-07
5.55153e-07
5.55125e-07
5.55063e-07
5.54976e-07
5.54849e-07
5.54638e-07
5.5426e-07
5.53579e-07
5.52406e-07
5.50548e-07
5.47885e-07
5.44471e-07
5.40617e-07
5.36905e-07
5.34129e-07
5.33101e-07
5.3434e-07
5.37552e-07
5.41809e-07
5.46364e-07
5.50508e-07
5.53776e-07
5.56025e-07
5.57344e-07
5.57947e-07
5.58059e-07
5.57878e-07
5.57545e-07
5.57153e-07
5.56757e-07
5.56388e-07
5.56058e-07
5.55772e-07
5.55529e-07
5.55327e-07
5.55159e-07
5.55023e-07
5.54911e-07
5.54821e-07
5.54749e-07
5.54691e-07
5.54645e-07
5.54608e-07
5.54579e-07
5.54556e-07
5.54538e-07
5.54524e-07
5.54513e-07
5.54504e-07
5.54497e-07
5.54492e-07
5.54488e-07
5.54484e-07
5.54482e-07
5.54482e-07
5.54484e-07
5.54496e-07
5.5453e-07
5.54595e-07
2.90353e-07
2.83486e-07
2.81577e-07
2.86955e-07
3.02387e-07
3.27997e-07
3.61481e-07
3.97389e-07
4.29945e-07
4.55702e-07
4.73976e-07
4.85881e-07
4.9313e-07
4.97273e-07
4.99465e-07
5.00509e-07
5.00908e-07
5.00945e-07
5.00769e-07
5.00446e-07
4.99976e-07
4.9929e-07
4.98224e-07
4.96476e-07
4.93585e-07
4.88972e-07
4.8208e-07
4.7259e-07
4.60686e-07
4.47309e-07
4.34299e-07
4.24178e-07
4.19368e-07
4.20972e-07
4.27779e-07
4.38219e-07
4.50309e-07
4.62235e-07
4.72771e-07
4.81326e-07
4.87823e-07
4.92503e-07
4.95733e-07
4.97891e-07
4.99295e-07
5.00193e-07
5.0076e-07
5.01116e-07
5.01339e-07
5.01479e-07
5.01567e-07
5.01623e-07
5.01659e-07
5.01681e-07
5.01695e-07
5.01704e-07
5.01709e-07
5.01712e-07
5.01713e-07
5.01713e-07
5.01713e-07
5.01713e-07
5.01712e-07
5.01711e-07
5.0171e-07
5.0171e-07
5.01709e-07
5.01709e-07
5.01708e-07
5.01708e-07
5.01708e-07
5.0171e-07
5.01719e-07
5.01753e-07
5.01889e-07
2.90065e-07
2.82316e-07
2.77761e-07
2.77391e-07
2.82896e-07
2.95575e-07
3.15466e-07
3.40662e-07
3.67583e-07
3.92697e-07
4.13553e-07
4.29274e-07
4.40215e-07
4.4734e-07
4.51741e-07
4.54302e-07
4.55698e-07
4.56387e-07
4.5665e-07
4.56626e-07
4.56325e-07
4.55591e-07
4.54015e-07
4.50829e-07
4.44848e-07
4.34555e-07
4.18433e-07
3.95513e-07
3.66096e-07
3.32489e-07
2.9926e-07
2.72178e-07
2.56218e-07
2.54131e-07
2.64477e-07
2.8466e-07
3.11129e-07
3.40018e-07
3.67951e-07
3.92434e-07
4.12219e-07
4.27159e-07
4.37819e-07
4.45078e-07
4.49834e-07
4.52855e-07
4.54727e-07
4.55869e-07
4.56557e-07
4.56973e-07
4.57225e-07
4.57381e-07
4.57479e-07
4.57544e-07
4.57587e-07
4.57617e-07
4.57638e-07
4.57653e-07
4.57664e-07
4.57672e-07
4.57678e-07
4.57682e-07
4.57686e-07
4.57688e-07
4.5769e-07
4.57691e-07
4.57692e-07
4.57693e-07
4.57693e-07
4.57693e-07
4.57694e-07
4.57695e-07
4.577e-07
4.57719e-07
4.57803e-07
2.89976e-07
2.81939e-07
2.76686e-07
2.74763e-07
2.77375e-07
2.85705e-07
3.00146e-07
3.19755e-07
3.42298e-07
3.64967e-07
3.85295e-07
4.01813e-07
4.14152e-07
4.22756e-07
4.28423e-07
4.31991e-07
4.34134e-07
4.35355e-07
4.35976e-07
4.36126e-07
4.35691e-07
4.34174e-07
4.30478e-07
4.22709e-07
4.08195e-07
3.83937e-07
3.47674e-07
2.99419e-07
2.42975e-07
1.86229e-07
1.383e-07
1.047e-07
8.60022e-08
8.14802e-08
8.97932e-08
1.10145e-07
1.41454e-07
1.81857e-07
2.28175e-07
2.75405e-07
3.18685e-07
3.54708e-07
3.82305e-07
4.02039e-07
4.1538e-07
4.23995e-07
4.29356e-07
4.32592e-07
4.34499e-07
4.35601e-07
4.36232e-07
4.3659e-07
4.36795e-07
4.36915e-07
4.36986e-07
4.3703e-07
4.37058e-07
4.37077e-07
4.3709e-07
4.371e-07
4.37107e-07
4.37112e-07
4.37116e-07
4.37119e-07
4.37121e-07
4.37123e-07
4.37124e-07
4.37125e-07
4.37126e-07
4.37126e-07
4.37127e-07
4.37128e-07
4.3713e-07
4.37139e-07
4.3718e-07
2.8995e-07
2.81805e-07
2.76344e-07
2.74073e-07
2.76061e-07
2.83383e-07
2.96425e-07
3.14412e-07
3.35419e-07
3.56903e-07
3.76546e-07
3.9287e-07
4.05384e-07
4.14353e-07
4.20428e-07
4.24352e-07
4.26783e-07
4.28198e-07
4.28863e-07
4.28745e-07
4.27308e-07
4.23177e-07
4.13773e-07
3.95253e-07
3.63241e-07
3.14701e-07
2.50731e-07
1.78901e-07
1.12048e-07
6.19743e-08
3.18236e-08
1.66061e-08
9.8485e-09
7.95555e-09
9.91239e-09
1.66383e-08
3.03884e-08
5.40762e-08
9.06734e-08
1.39681e-07
1.96713e-07
2.54537e-07
3.06117e-07
3.47308e-07
3.77368e-07
3.97803e-07
4.10951e-07
4.19055e-07
4.23883e-07
4.26683e-07
4.28273e-07
4.29161e-07
4.29652e-07
4.29924e-07
4.30074e-07
4.3016e-07
4.3021e-07
4.3024e-07
4.30259e-07
4.30272e-07
4.30281e-07
4.30288e-07
4.30292e-07
4.30296e-07
4.30299e-07
4.30301e-07
4.30302e-07
4.30303e-07
4.30304e-07
4.30305e-07
4.30306e-07
4.30307e-07
4.30308e-07
4.30313e-07
4.30327e-07
2.89943e-07
2.81759e-07
2.76231e-07
2.73916e-07
2.75923e-07
2.83298e-07
2.96346e-07
3.14196e-07
3.34887e-07
3.55947e-07
3.75178e-07
3.91191e-07
4.03516e-07
4.124e-07
4.18463e-07
4.22406e-07
4.24847e-07
4.262e-07
4.26563e-07
4.25473e-07
4.21455e-07
4.11473e-07
3.90754e-07
3.53808e-07
2.9726e-07
2.23872e-07
1.45004e-07
7.73001e-08
3.26512e-08
1.08254e-08
2.9535e-09
7.37139e-10
1.75092e-10
7.77746e-11
1.36555e-10
5.41908e-10
2.23951e-09
7.41052e-09
2.03979e-08
4.62175e-08
8.80519e-08
1.44493e-07
2.08432e-07
2.70062e-07
3.21717e-07
3.60381e-07
3.86913e-07
4.03971e-07
4.14413e-07
4.20571e-07
4.24099e-07
4.26075e-07
4.27162e-07
4.27754e-07
4.28074e-07
4.28248e-07
4.28344e-07
4.28398e-07
4.28429e-07
4.28449e-07
4.28461e-07
4.2847e-07
4.28476e-07
4.2848e-07
4.28484e-07
4.28486e-07
4.28488e-07
4.28489e-07
4.2849e-07
4.28491e-07
4.28492e-07
4.28493e-07
4.28494e-07
4.28496e-07
4.285e-07
2.8994e-07
2.81743e-07
2.76194e-07
2.739e-07
2.76036e-07
2.83677e-07
2.97066e-07
3.15204e-07
3.36011e-07
3.56978e-07
3.75958e-07
3.91657e-07
4.03695e-07
4.12356e-07
4.18261e-07
4.22093e-07
4.24413e-07
4.25502e-07
4.25098e-07
4.21891e-07
4.12804e-07
3.92581e-07
3.54809e-07
2.95433e-07
2.17881e-07
1.35645e-07
6.72379e-08
2.46249e-08
5.95886e-09
8.1138e-10
1.00954e-10
6.31245e-11
9.07527e-13
8.28971e-14
2.59944e-13
3.17132e-12
4.20157e-11
4.16024e-10
2.50959e-09
1.02451e-08
2.93791e-08
6.52231e-08
1.18838e-07
1.8427e-07
2.50645e-07
3.08036e-07
3.51655e-07
3.81707e-07
4.00967e-07
4.12674e-07
4.19513e-07
4.2339e-07
4.25536e-07
4.26703e-07
4.27329e-07
4.27663e-07
4.27841e-07
4.27938e-07
4.2799e-07
4.28021e-07
4.28039e-07
4.2805e-07
4.28057e-07
4.28063e-07
4.28066e-07
4.28069e-07
4.28071e-07
4.28073e-07
4.28074e-07
4.28075e-07
4.28075e-07
4.28076e-07
4.28077e-07
4.28079e-07
4.28079e-07
2.89939e-07
2.81736e-07
2.7618e-07
2.73911e-07
2.7616e-07
2.84037e-07
2.97754e-07
3.16212e-07
3.37216e-07
3.582e-07
3.77035e-07
3.925e-07
4.04288e-07
4.12732e-07
4.18466e-07
4.2215e-07
4.24264e-07
4.24842e-07
4.2299e-07
4.16069e-07
3.9895e-07
3.64587e-07
3.07449e-07
2.29578e-07
1.4451e-07
7.22306e-08
2.62927e-08
5.91646e-09
5.59381e-10
1.69471e-11
5.41396e-11
1e-06
1e-06
1e-06
1e-06
1e-06
4.99077e-14
4.6062e-12
1.15144e-10
1.31003e-09
7.23586e-09
2.43157e-08
5.89063e-08
1.12676e-07
1.79527e-07
2.47827e-07
3.06862e-07
3.51498e-07
3.82001e-07
4.01365e-07
4.13015e-07
4.19752e-07
4.23532e-07
4.25603e-07
4.26717e-07
4.27309e-07
4.2762e-07
4.27784e-07
4.27871e-07
4.27918e-07
4.27944e-07
4.27959e-07
4.27969e-07
4.27975e-07
4.27979e-07
4.27982e-07
4.27984e-07
4.27986e-07
4.27987e-07
4.27988e-07
4.27989e-07
4.27989e-07
4.27991e-07
4.27992e-07
4.27991e-07
2.89938e-07
2.81733e-07
2.76174e-07
2.73921e-07
2.76246e-07
2.8429e-07
2.9825e-07
3.16961e-07
3.3814e-07
3.59168e-07
3.77922e-07
3.93227e-07
4.04832e-07
4.13107e-07
4.18695e-07
4.22224e-07
4.24041e-07
4.23797e-07
4.1968e-07
4.07398e-07
3.79953e-07
3.30116e-07
2.56473e-07
1.69643e-07
9.01877e-08
3.5623e-08
8.97175e-09
9.47861e-10
1.9063e-11
1.67386e-12
1e-06
1e-06
1e-06
1e-06
1e-06
1e-06
1e-06
9.19652e-16
3.3645e-12
1.27664e-10
1.57423e-09
8.44804e-09
2.76709e-08
6.5493e-08
1.22502e-07
1.91136e-07
2.59099e-07
3.16217e-07
3.58393e-07
3.86663e-07
4.04328e-07
4.14815e-07
4.20809e-07
4.24137e-07
4.25941e-07
4.26903e-07
4.27408e-07
4.27671e-07
4.27808e-07
4.27879e-07
4.27917e-07
4.27938e-07
4.2795e-07
4.27957e-07
4.27962e-07
4.27965e-07
4.27967e-07
4.27969e-07
4.2797e-07
4.27971e-07
4.27972e-07
4.27972e-07
4.27974e-07
4.27975e-07
4.27973e-07
2.89938e-07
2.81731e-07
2.7617e-07
2.73927e-07
2.76299e-07
2.84449e-07
2.98574e-07
3.17462e-07
3.38772e-07
3.59844e-07
3.78554e-07
3.93757e-07
4.05238e-07
4.13392e-07
4.18863e-07
4.22229e-07
4.23652e-07
4.22275e-07
4.152e-07
3.96529e-07
3.58225e-07
2.94789e-07
2.10814e-07
1.2409e-07
5.61108e-08
1.73803e-08
2.85334e-09
1.49336e-10
6.20887e-11
1e-06
1e-06
1e-06
1e-06
1e-06
1e-06
1e-06
1e-06
1e-06
2.34095e-14
1.62681e-11
4.19293e-10
3.36179e-09
1.39387e-08
3.90503e-08
8.35213e-08
1.45416e-07
2.15075e-07
2.80193e-07
3.32411e-07
3.69594e-07
3.93848e-07
4.08694e-07
4.17367e-07
4.22259e-07
4.24944e-07
4.26384e-07
4.27144e-07
4.27539e-07
4.27743e-07
4.27848e-07
4.27902e-07
4.2793e-07
4.27946e-07
4.27954e-07
4.27959e-07
4.27963e-07
4.27965e-07
4.27966e-07
4.27967e-07
4.27968e-07
4.27969e-07
4.27969e-07
4.27971e-07
4.27972e-07
4.2797e-07
2.89938e-07
2.8173e-07
2.76167e-07
2.73929e-07
2.76327e-07
2.84542e-07
2.98768e-07
3.17772e-07
3.39171e-07
3.60278e-07
3.78967e-07
3.94108e-07
4.05509e-07
4.13581e-07
4.1896e-07
4.22157e-07
4.23115e-07
4.20417e-07
4.10113e-07
3.85114e-07
3.37324e-07
2.64105e-07
1.75786e-07
9.39528e-08
3.73105e-08
9.70668e-09
1.35788e-09
1.21771e-10
1e-06
1e-06
1e-06
1e-06
1e-06
1e-06
1e-06
1e-06
1e-06
1e-06
1e-06
1.07385e-12
5.89446e-11
1.01751e-09
6.50344e-09
2.32027e-08
5.75977e-08
1.11423e-07
1.78642e-07
2.47511e-07
3.07072e-07
3.52024e-07
3.82624e-07
4.01941e-07
4.13483e-07
4.20103e-07
4.23782e-07
4.25775e-07
4.26832e-07
4.27384e-07
4.27668e-07
4.27813e-07
4.27886e-07
4.27924e-07
4.27943e-07
4.27954e-07
4.2796e-07
4.27963e-07
4.27965e-07
4.27966e-07
4.27967e-07
4.27968e-07
4.27969e-07
4.27969e-07
4.2797e-07
4.27972e-07
4.2797e-07
2.89938e-07
2.81729e-07
2.76165e-07
2.73928e-07
2.76339e-07
2.84588e-07
2.98872e-07
3.17944e-07
3.39398e-07
3.60529e-07
3.79207e-07
3.94312e-07
4.05666e-07
4.13685e-07
4.18995e-07
4.22039e-07
4.22549e-07
4.18611e-07
4.05478e-07
3.75434e-07
3.20903e-07
2.41909e-07
1.52617e-07
7.56413e-08
2.69908e-08
6.2501e-09
1.19213e-09
4.39425e-10
1e-06
1e-06
1e-06
1e-06
1e-06
1e-06
1e-06
1e-06
1e-06
1e-06
1e-06
4.28518e-14
5.49549e-12
2.29051e-10
2.53834e-09
1.25934e-08
3.82405e-08
8.43914e-08
1.48303e-07
2.19279e-07
2.84552e-07
3.36069e-07
3.72261e-07
3.95619e-07
4.09802e-07
4.18036e-07
4.22655e-07
4.25177e-07
4.26523e-07
4.27228e-07
4.27592e-07
4.27777e-07
4.27871e-07
4.27918e-07
4.27941e-07
4.27954e-07
4.2796e-07
4.27964e-07
4.27966e-07
4.27967e-07
4.27968e-07
4.27968e-07
4.27969e-07
4.27969e-07
4.2797e-07
4.27972e-07
4.2797e-07
2.89938e-07
2.81729e-07
2.76164e-07
2.73928e-07
2.76346e-07
2.84613e-07
2.98927e-07
3.18035e-07
3.39518e-07
3.60661e-07
3.7933e-07
3.94413e-07
4.05737e-07
4.13725e-07
4.18995e-07
4.21954e-07
4.22224e-07
4.17651e-07
4.03173e-07
3.70924e-07
3.13654e-07
2.32634e-07
1.4376e-07
6.93771e-08
2.38237e-08
5.13962e-09
8.26572e-10
1.82213e-10
1e-06
1e-06
1e-06
1e-06
1e-06
1e-06
1e-06
1e-06
1e-06
1e-06
1e-06
5.8051e-15
1.19849e-12
8.37458e-11
1.34826e-09
8.44068e-09
2.95294e-08
7.12061e-08
1.3267e-07
2.04129e-07
2.72098e-07
3.27039e-07
3.66281e-07
3.91904e-07
4.07598e-07
4.16774e-07
4.21954e-07
4.24797e-07
4.26323e-07
4.27125e-07
4.27541e-07
4.27753e-07
4.2786e-07
4.27913e-07
4.2794e-07
4.27954e-07
4.27961e-07
4.27964e-07
4.27966e-07
4.27967e-07
4.27968e-07
4.27969e-07
4.27969e-07
4.2797e-07
4.2797e-07
4.27972e-07
4.2797e-07
2.89938e-07
2.81729e-07
2.76165e-07
2.73931e-07
2.76352e-07
2.84626e-07
2.98951e-07
3.18068e-07
3.39556e-07
3.60696e-07
3.79355e-07
3.94422e-07
4.05731e-07
4.13709e-07
4.18981e-07
4.2198e-07
4.22409e-07
4.18318e-07
4.04968e-07
3.74734e-07
3.20112e-07
2.41193e-07
1.52205e-07
7.55329e-08
2.71049e-08
6.48734e-09
1.44113e-09
4.40013e-10
1e-06
1e-06
1e-06
1e-06
1e-06
1e-06
1e-06
1e-06
1e-06
1e-06
1e-06
3.69965e-14
4.95348e-12
2.03255e-10
2.27592e-09
1.1532e-08
3.57072e-08
8.00006e-08
1.42306e-07
2.12607e-07
2.78321e-07
3.31002e-07
3.68546e-07
3.93095e-07
4.08182e-07
4.17041e-07
4.22068e-07
4.24842e-07
4.26338e-07
4.2713e-07
4.27542e-07
4.27753e-07
4.2786e-07
4.27914e-07
4.27941e-07
4.27954e-07
4.27961e-07
4.27965e-07
4.27967e-07
4.27968e-07
4.27968e-07
4.27969e-07
4.27969e-07
4.2797e-07
4.27971e-07
4.27972e-07
4.2797e-07
2.89938e-07
2.8173e-07
2.76167e-07
2.73934e-07
2.76353e-07
2.84616e-07
2.9892e-07
3.18011e-07
3.39473e-07
3.60594e-07
3.79245e-07
3.94314e-07
4.05632e-07
4.13626e-07
4.18937e-07
4.22063e-07
4.22908e-07
4.2e-07
4.09385e-07
3.84093e-07
3.36192e-07
2.63126e-07
1.75186e-07
9.37366e-08
3.74684e-08
1.02214e-08
2.03426e-09
1.18047e-10
1e-06
1e-06
1e-06
1e-06
1e-06
1e-06
1e-06
1e-06
1e-06
1e-06
1e-06
9.47595e-13
5.35e-11
8.86102e-10
5.70568e-09
2.08305e-08
5.27904e-08
1.03794e-07
1.68761e-07
2.36874e-07
2.97312e-07
3.44145e-07
3.76855e-07
3.98017e-07
4.10961e-07
4.18555e-07
4.22868e-07
4.25255e-07
4.26547e-07
4.27234e-07
4.27593e-07
4.27778e-07
4.27872e-07
4.2792e-07
4.27944e-07
4.27956e-07
4.27962e-07
4.27965e-07
4.27967e-07
4.27968e-07
4.27969e-07
4.27969e-07
4.27969e-07
4.2797e-07
4.27971e-07
4.27972e-07
4.2797e-07
2.89938e-07
2.81731e-07
2.7617e-07
2.73936e-07
2.76339e-07
2.84563e-07
2.98802e-07
3.17818e-07
3.39218e-07
3.60309e-07
3.78964e-07
3.94062e-07
4.05422e-07
4.13464e-07
4.18842e-07
4.22121e-07
4.23429e-07
4.21847e-07
4.14443e-07
3.95412e-07
3.56928e-07
2.93635e-07
2.10015e-07
1.23584e-07
5.59234e-08
1.76513e-08
3.51925e-09
1.68971e-10
6.15169e-11
1e-06
1e-06
1e-06
1e-06
1e-06
1e-06
1e-06
1e-06
1e-06
2.01374e-14
1.46237e-11
3.89054e-10
3.07127e-09
1.27506e-08
3.59268e-08
7.73479e-08
1.35787e-07
2.0297e-07
2.67607e-07
3.21213e-07
3.60764e-07
3.87491e-07
4.04422e-07
4.14649e-07
4.20605e-07
4.23977e-07
4.25841e-07
4.26851e-07
4.27388e-07
4.2767e-07
4.27816e-07
4.27891e-07
4.27929e-07
4.27948e-07
4.27958e-07
4.27963e-07
4.27966e-07
4.27968e-07
4.27968e-07
4.27969e-07
4.27969e-07
4.2797e-07
4.2797e-07
4.27971e-07
4.27972e-07
4.2797e-07
2.89938e-07
2.81733e-07
2.76174e-07
2.73934e-07
2.76304e-07
2.84447e-07
2.98562e-07
3.17441e-07
3.38739e-07
3.5979e-07
3.78469e-07
3.93636e-07
4.05082e-07
4.13212e-07
4.18683e-07
4.22115e-07
4.23824e-07
4.23404e-07
4.18986e-07
4.06311e-07
3.7858e-07
3.28791e-07
2.55529e-07
1.69155e-07
9.00711e-08
3.58571e-08
9.70322e-09
1.37232e-09
2.31962e-11
1.52945e-12
1e-06
1e-06
1e-06
1e-06
1e-06
1e-06
1e-06
7.74694e-16
2.9757e-12
1.17304e-10
1.47227e-09
7.88062e-09
2.56024e-08
6.03143e-08
1.13037e-07
1.77832e-07
2.44063e-07
3.01957e-07
3.46582e-07
3.77827e-07
3.98205e-07
4.10818e-07
4.18323e-07
4.22654e-07
4.25091e-07
4.26435e-07
4.27162e-07
4.27549e-07
4.27752e-07
4.27858e-07
4.27913e-07
4.27941e-07
4.27955e-07
4.27963e-07
4.27967e-07
4.27969e-07
4.2797e-07
4.27971e-07
4.27971e-07
4.27972e-07
4.27972e-07
4.27972e-07
4.27973e-07
4.27975e-07
4.27973e-07
2.89939e-07
2.81736e-07
2.76181e-07
2.73928e-07
2.76236e-07
2.84243e-07
2.98156e-07
3.16825e-07
3.37974e-07
3.58982e-07
3.7772e-07
3.93009e-07
4.046e-07
4.12867e-07
4.18462e-07
4.22042e-07
4.24059e-07
4.24501e-07
4.22408e-07
4.1512e-07
3.97628e-07
3.63157e-07
3.06378e-07
2.29175e-07
1.44553e-07
7.2161e-08
2.62683e-08
6.31263e-09
6.5693e-10
1.81144e-11
5.18558e-11
1e-06
1e-06
1e-06
1e-06
1e-06
4.28103e-14
4.10472e-12
1.05725e-10
1.21659e-09
6.50977e-09
2.1716e-08
5.27194e-08
1.01595e-07
1.63858e-07
2.29775e-07
2.89339e-07
3.36651e-07
3.70665e-07
3.93366e-07
4.07706e-07
4.16399e-07
4.21502e-07
4.24422e-07
4.26056e-07
4.26955e-07
4.2744e-07
4.27699e-07
4.27835e-07
4.27906e-07
4.27943e-07
4.27962e-07
4.27972e-07
4.27978e-07
4.2798e-07
4.27982e-07
4.27983e-07
4.27984e-07
4.27984e-07
4.27984e-07
4.27985e-07
4.27985e-07
4.27986e-07
4.27987e-07
4.27985e-07
2.8994e-07
2.81743e-07
2.76196e-07
2.73923e-07
2.76135e-07
2.83937e-07
2.97563e-07
3.15948e-07
3.36915e-07
3.57896e-07
3.76747e-07
3.92231e-07
4.04035e-07
4.12492e-07
4.18242e-07
4.21965e-07
4.24202e-07
4.25196e-07
4.24629e-07
4.21144e-07
4.11701e-07
3.9125e-07
3.53698e-07
2.95091e-07
2.18406e-07
1.36459e-07
6.79472e-08
2.53528e-08
6.48038e-09
9.95288e-10
9.87302e-11
4.7538e-12
2.97569e-13
7.75504e-14
2.43336e-13
2.91235e-12
3.8975e-11
3.86893e-10
2.33222e-09
9.02776e-09
2.55109e-08
5.68346e-08
1.04725e-07
1.65058e-07
2.28948e-07
2.87133e-07
3.33937e-07
3.68107e-07
3.91294e-07
4.0619e-07
4.15373e-07
4.20853e-07
4.24039e-07
4.2585e-07
4.26861e-07
4.27415e-07
4.27715e-07
4.27875e-07
4.2796e-07
4.28004e-07
4.28027e-07
4.28039e-07
4.28046e-07
4.28049e-07
4.28051e-07
4.28053e-07
4.28053e-07
4.28054e-07
4.28054e-07
4.28054e-07
4.28054e-07
4.28055e-07
4.28056e-07
4.28057e-07
4.28055e-07
2.89943e-07
2.81759e-07
2.76234e-07
2.73947e-07
2.76047e-07
2.83611e-07
2.96926e-07
3.15035e-07
3.35872e-07
3.56906e-07
3.75957e-07
3.91709e-07
4.0377e-07
4.12438e-07
4.18347e-07
4.22192e-07
4.2457e-07
4.25868e-07
4.26144e-07
4.24889e-07
4.20617e-07
4.10395e-07
3.89714e-07
3.53394e-07
2.98052e-07
2.25887e-07
1.4765e-07
7.98322e-08
3.45226e-08
1.19283e-08
3.26261e-09
7.5886e-10
1.84537e-10
8.01465e-11
1.3475e-10
5.19397e-10
2.1139e-09
6.84989e-09
1.80864e-08
4.00672e-08
7.61042e-08
1.26049e-07
1.84982e-07
2.44866e-07
2.98204e-07
3.40787e-07
3.71964e-07
3.93323e-07
4.07231e-07
4.15937e-07
4.21219e-07
4.24341e-07
4.26146e-07
4.27169e-07
4.2774e-07
4.28053e-07
4.28222e-07
4.28313e-07
4.28361e-07
4.28387e-07
4.284e-07
4.28408e-07
4.28412e-07
4.28414e-07
4.28415e-07
4.28416e-07
4.28416e-07
4.28417e-07
4.28417e-07
4.28417e-07
4.28417e-07
4.28418e-07
4.28419e-07
4.2842e-07
4.28419e-07
2.8995e-07
2.81804e-07
2.76347e-07
2.74111e-07
2.76208e-07
2.83736e-07
2.97044e-07
3.15251e-07
3.36327e-07
3.57689e-07
3.7707e-07
3.93086e-07
4.05328e-07
4.14099e-07
4.20054e-07
4.2392e-07
4.26328e-07
4.27731e-07
4.28371e-07
4.28184e-07
4.26615e-07
4.22317e-07
4.12854e-07
3.94656e-07
3.63626e-07
3.16722e-07
2.54584e-07
1.84053e-07
1.17377e-07
6.6402e-08
3.46582e-08
1.81562e-08
1.07568e-08
8.50547e-09
9.96805e-09
1.55879e-08
2.72491e-08
4.74857e-08
7.86315e-08
1.21186e-07
1.72553e-07
2.27302e-07
2.7917e-07
3.2343e-07
3.58029e-07
3.83226e-07
4.00576e-07
4.12005e-07
4.19269e-07
4.23751e-07
4.26448e-07
4.28035e-07
4.28951e-07
4.2947e-07
4.29759e-07
4.29919e-07
4.30006e-07
4.30052e-07
4.30077e-07
4.30091e-07
4.30098e-07
4.30102e-07
4.30104e-07
4.30106e-07
4.30106e-07
4.30107e-07
4.30107e-07
4.30108e-07
4.30108e-07
4.30108e-07
4.30108e-07
4.30109e-07
4.3011e-07
4.30112e-07
4.30113e-07
2.89976e-07
2.81938e-07
2.76689e-07
2.74806e-07
2.77536e-07
2.86068e-07
3.00725e-07
3.20437e-07
3.42883e-07
3.65271e-07
3.85238e-07
4.01428e-07
4.1354e-07
4.22027e-07
4.27664e-07
4.31252e-07
4.33436e-07
4.34698e-07
4.35344e-07
4.35489e-07
4.35008e-07
4.33407e-07
4.29644e-07
4.21972e-07
4.07949e-07
3.84808e-07
3.50342e-07
3.04291e-07
2.49831e-07
1.94144e-07
1.45941e-07
1.11132e-07
9.09269e-08
8.43623e-08
8.9206e-08
1.04578e-07
1.30063e-07
1.64523e-07
2.05624e-07
2.49704e-07
2.92554e-07
3.30629e-07
3.61888e-07
3.85882e-07
4.03301e-07
4.15377e-07
4.23435e-07
4.28641e-07
4.31914e-07
4.33921e-07
4.35127e-07
4.35837e-07
4.36249e-07
4.36484e-07
4.36616e-07
4.3669e-07
4.36732e-07
4.36755e-07
4.36767e-07
4.36775e-07
4.36779e-07
4.36781e-07
4.36783e-07
4.36784e-07
4.36784e-07
4.36785e-07
4.36785e-07
4.36785e-07
4.36786e-07
4.36786e-07
4.36786e-07
4.36787e-07
4.36788e-07
4.36793e-07
4.36804e-07
2.90064e-07
2.82313e-07
2.77761e-07
2.77431e-07
2.83052e-07
2.95903e-07
3.159e-07
3.41005e-07
3.67616e-07
3.9232e-07
4.1282e-07
4.28332e-07
4.3922e-07
4.46403e-07
4.50916e-07
4.536e-07
4.55102e-07
4.55872e-07
4.56184e-07
4.56177e-07
4.55861e-07
4.5508e-07
4.53447e-07
4.5025e-07
4.44417e-07
4.34589e-07
4.19389e-07
3.9788e-07
3.70183e-07
3.38186e-07
3.0589e-07
2.78579e-07
2.60915e-07
2.55298e-07
2.60434e-07
2.7483e-07
2.96307e-07
3.21899e-07
3.48566e-07
3.7372e-07
3.95606e-07
4.13408e-07
4.27091e-07
4.37121e-07
4.44185e-07
4.48993e-07
4.52171e-07
4.5422e-07
4.55513e-07
4.56313e-07
4.568e-07
4.57094e-07
4.5727e-07
4.57374e-07
4.57437e-07
4.57474e-07
4.57496e-07
4.5751e-07
4.57519e-07
4.57524e-07
4.57528e-07
4.5753e-07
4.57532e-07
4.57533e-07
4.57533e-07
4.57534e-07
4.57534e-07
4.57534e-07
4.57534e-07
4.57534e-07
4.57535e-07
4.57536e-07
4.57541e-07
4.57556e-07
4.576e-07
2.90353e-07
2.83483e-07
2.81573e-07
2.86979e-07
3.02494e-07
3.28171e-07
3.61567e-07
3.97199e-07
4.2943e-07
4.54982e-07
4.73249e-07
4.8531e-07
4.92798e-07
4.97192e-07
4.996e-07
5.00808e-07
5.01319e-07
5.01421e-07
5.01273e-07
5.00945e-07
5.00443e-07
4.99702e-07
4.98565e-07
4.96752e-07
4.93847e-07
4.8934e-07
4.82741e-07
4.73757e-07
4.62505e-07
4.49724e-07
4.36937e-07
4.26305e-07
4.19978e-07
4.19071e-07
4.22885e-07
4.3062e-07
4.40952e-07
4.52314e-07
4.63357e-07
4.73163e-07
4.81279e-07
4.87627e-07
4.92368e-07
4.95774e-07
4.9814e-07
4.99738e-07
5.0079e-07
5.01466e-07
5.01893e-07
5.02156e-07
5.02316e-07
5.02411e-07
5.02467e-07
5.02498e-07
5.02515e-07
5.02523e-07
5.02526e-07
5.02527e-07
5.02527e-07
5.02525e-07
5.02524e-07
5.02522e-07
5.0252e-07
5.02519e-07
5.02518e-07
5.02517e-07
5.02516e-07
5.02515e-07
5.02514e-07
5.02514e-07
5.02515e-07
5.02519e-07
5.02533e-07
5.02579e-07
5.02715e-07
2.91445e-07
2.88517e-07
2.97099e-07
3.18652e-07
3.54133e-07
4.00564e-07
4.48252e-07
4.87952e-07
5.16164e-07
5.34125e-07
5.44744e-07
5.50703e-07
5.53907e-07
5.55533e-07
5.56313e-07
5.56645e-07
5.56753e-07
5.56746e-07
5.56676e-07
5.56559e-07
5.56384e-07
5.56111e-07
5.55663e-07
5.54915e-07
5.53705e-07
5.51867e-07
5.49304e-07
5.46063e-07
5.42389e-07
5.38741e-07
5.35753e-07
5.34114e-07
5.34333e-07
5.36295e-07
5.39398e-07
5.43201e-07
5.47146e-07
5.50733e-07
5.53656e-07
5.55813e-07
5.57258e-07
5.58115e-07
5.58533e-07
5.58649e-07
5.58573e-07
5.58387e-07
5.5815e-07
5.57898e-07
5.57654e-07
5.57432e-07
5.57236e-07
5.57069e-07
5.56929e-07
5.56814e-07
5.56719e-07
5.56643e-07
5.56582e-07
5.56533e-07
5.56494e-07
5.56463e-07
5.56438e-07
5.56419e-07
5.56403e-07
5.56391e-07
5.56382e-07
5.56375e-07
5.56369e-07
5.56364e-07
5.56361e-07
5.56359e-07
5.5636e-07
5.56369e-07
5.56405e-07
5.56518e-07
5.56817e-07
)
;

boundaryField
{
    ibCylinder
    {
        type            immersedBoundaryNutWallFunction;
        patchType       immersedBoundary;
        blending        stepwise;
        value           nonuniform List<scalar> 0();
    }
    in
    {
        type            zeroGradient;
    }
    out
    {
        type            zeroGradient;
    }
    top
    {
        type            zeroGradient;
    }
    bottom
    {
        type            zeroGradient;
    }
    frontAndBack
    {
        type            empty;
    }
}


// ************************************************************************* //
