/*--------------------------------*- C++ -*----------------------------------*\
| =========                 |                                                 |
| \\      /  F ield         | OpenFOAM: The Open Source CFD Toolbox           |
|  \\    /   O peration     | Version:  2206                                  |
|   \\  /    A nd           | Website:  www.openfoam.com                      |
|    \\/     M anipulation  |                                                 |
\*---------------------------------------------------------------------------*/
FoamFile
{
    version     2.0;
    format      ascii;
    arch        "LSB;label=32;scalar=64";
    class       volScalarField;
    location    "0.3";
    object      omega;
}
// * * * * * * * * * * * * * * * * * * * * * * * * * * * * * * * * * * * * * //

dimensions      [0 0 -1 0 0 0 0];

internalField   nonuniform List<scalar> 
1875
(
293.474
184.576
128.12
95.4214
75.3366
62.9586
55.4773
51.0687
48.5363
47.1126
46.3255
45.8962
45.6652
45.5422
45.479
45.4491
45.4388
45.4408
45.4514
45.4689
45.4928
45.5234
45.5624
45.613
45.6815
45.7777
45.9147
46.1054
46.3566
46.6599
46.9838
47.2731
47.4672
47.5238
47.4464
47.265
47.0233
46.7611
46.5078
46.2811
46.0887
45.9312
45.805
45.7052
45.6266
45.5645
45.5154
45.4763
45.4452
45.4204
45.4006
45.3848
45.3723
45.3623
45.3544
45.3482
45.3433
45.3394
45.3364
45.334
45.3322
45.3307
45.3296
45.3287
45.328
45.3275
45.3271
45.3268
45.3266
45.3263
45.3261
45.3257
45.3245
45.3206
45.3111
293.237
189.683
135.161
102.568
81.7207
67.8557
58.6423
52.6442
48.852
46.5302
45.1492
44.3478
43.8918
43.6342
43.488
43.4038
43.3538
43.3222
43.3002
43.283
43.2684
43.2558
43.2476
43.2499
43.2755
43.3466
43.4955
43.7622
44.1829
44.7676
45.4636
46.1308
46.5745
46.6572
46.421
45.9631
45.4126
44.8766
44.4174
44.0585
43.7972
43.6177
43.5001
43.4259
43.3802
43.3525
43.3356
43.325
43.318
43.3131
43.3095
43.3067
43.3045
43.3026
43.3012
43.2999
43.2989
43.2981
43.2974
43.2968
43.2963
43.296
43.2957
43.2954
43.2952
43.2951
43.295
43.2949
43.2948
43.2947
43.2946
43.2943
43.2929
43.2859
43.2507
293.165
190.002
136.88
105.245
84.6645
70.6062
60.8253
54.049
49.4289
46.3681
44.4053
43.1871
42.4533
42.0222
41.7746
41.6334
41.553
41.5064
41.4781
41.46
41.4489
41.4466
41.4623
41.5171
41.6519
41.9361
42.4759
43.4161
44.9223
47.1074
49.8694
52.7172
54.8009
55.298
54.2572
52.2118
49.8282
47.5858
45.7169
44.2909
43.2725
42.5836
42.1383
41.8616
41.6954
41.5984
41.543
41.512
41.4947
41.485
41.4795
41.4762
41.4742
41.4729
41.472
41.4713
41.4708
41.4704
41.4701
41.4698
41.4696
41.4695
41.4693
41.4692
41.4691
41.4691
41.469
41.469
41.4689
41.4689
41.4688
41.4686
41.4674
41.4614
41.4312
293.089
189.331
136.394
105.284
85.1688
71.3806
61.6415
54.7136
49.8408
46.492
44.2587
42.8168
41.9144
41.3665
41.0428
40.8567
40.752
40.6948
40.6651
40.6526
40.6564
40.6873
40.7763
40.9897
41.4505
42.3689
44.0837
47.1115
52.1678
59.9795
70.6541
82.7778
93.0808
96.6701
92.0911
82.5658
72.2296
63.1781
55.9881
50.707
47.0317
44.5837
43.013
42.0375
41.4484
41.1012
40.9006
40.7863
40.7218
40.6853
40.6644
40.6522
40.6449
40.6403
40.6373
40.6352
40.6337
40.6327
40.6319
40.6313
40.6308
40.6305
40.6302
40.63
40.6299
40.6297
40.6296
40.6296
40.6295
40.6295
40.6294
40.6292
40.6282
40.623
40.5958
293.045
188.861
135.617
104.531
84.6162
71.0559
61.5007
54.6897
49.8641
46.5064
44.2306
42.7338
41.7798
41.19
40.8358
40.6288
40.5117
40.4489
40.4197
40.4168
40.4491
40.5541
40.8204
41.4253
42.6914
45.1826
49.8758
58.4774
73.8549
99.9647
140.09
192.98
249.753
280.206
255.755
201.665
152.071
115.323
88.955
71.166
59.4839
51.9869
47.2889
44.4136
42.6938
41.6872
41.1092
40.7829
40.601
40.5003
40.4446
40.4135
40.3958
40.3854
40.379
40.3749
40.3722
40.3703
40.3689
40.3679
40.3672
40.3667
40.3662
40.3659
40.3657
40.3655
40.3653
40.3652
40.3652
40.3651
40.365
40.3648
40.3639
40.359
40.3327
293.024
188.608
135.08
103.838
83.9124
70.4369
61.0111
54.3343
49.6225
46.3489
44.1277
42.6622
41.723
41.1385
40.7849
40.5767
40.4584
40.3965
40.3744
40.3948
40.4939
40.7702
41.4355
42.8928
45.869
51.6938
62.9409
84.8825
128.81
217.796
388.979
688.932
1164.46
1568.92
1315.23
810.34
469.219
288.401
182.997
123.911
89.8538
69.6133
57.4768
50.2335
45.9622
43.4826
42.0673
41.2729
40.8337
40.5939
40.4639
40.3936
40.3554
40.3343
40.3222
40.3151
40.3107
40.3079
40.306
40.3046
40.3036
40.3029
40.3024
40.3019
40.3016
40.3014
40.3012
40.3011
40.301
40.3009
40.3008
40.3006
40.2998
40.295
40.2689
293.013
188.48
134.772
103.384
83.3847
69.9081
60.5361
53.9435
49.3248
46.1369
43.9847
42.5691
41.6635
41.1001
40.7591
40.5585
40.4456
40.3906
40.3864
40.4588
40.6987
41.3192
42.7463
45.7653
51.8161
63.7361
87.8073
140.041
269.864
667.169
1885.6
5417.76
14976.4
25011.6
15405.8
5661.45
2003.75
897.811
454.385
247.404
152.743
103.925
76.7771
61.1785
52.1401
46.9285
43.9591
42.2926
41.372
40.871
40.6018
40.4585
40.3824
40.3419
40.32
40.3079
40.301
40.2969
40.2942
40.2925
40.2913
40.2905
40.2898
40.2894
40.289
40.2888
40.2886
40.2884
40.2883
40.2882
40.2881
40.2879
40.2871
40.2823
40.2563
293.008
188.414
134.603
103.113
83.0455
69.5434
60.1857
53.6364
49.0761
45.9492
43.8513
42.4789
41.6049
41.0633
40.7365
40.5454
40.4403
40.3982
40.4284
40.5978
41.0881
42.2878
44.9373
50.3931
61.2528
83.1649
131.211
258.142
750.556
4592.65
39243.4
500
500
500
500
500
45821.3
4947.38
1514.08
603.321
289.792
166.656
108.897
78.6472
61.8777
52.3744
46.9795
43.9442
42.26
41.3399
40.8448
40.5818
40.4436
40.3713
40.3334
40.3134
40.3026
40.2965
40.293
40.2908
40.2894
40.2884
40.2878
40.2873
40.2869
40.2867
40.2865
40.2863
40.2862
40.2861
40.286
40.2858
40.2849
40.2802
40.2542
293.005
188.378
134.507
102.953
82.836
69.3082
59.9506
53.4224
48.8964
45.8085
43.7475
42.4061
41.5559
41.0314
40.7165
40.5341
40.4384
40.4161
40.5018
40.8233
41.6857
43.7026
48.0175
56.7647
74.3496
111.923
208.191
586.81
4554.59
235293
500
500
500
500
500
500
500
390580
4991.41
1369.43
531.291
262.921
154.203
102.291
74.8994
59.6918
51.0912
46.2294
43.5095
42.0106
41.1979
40.7641
40.5358
40.4169
40.3554
40.3237
40.3071
40.2983
40.2935
40.2908
40.2892
40.2881
40.2874
40.2869
40.2866
40.2863
40.2861
40.286
40.2859
40.2858
40.2857
40.2855
40.2846
40.2799
40.2539
293.003
188.357
134.45
102.857
82.7075
69.16
59.7984
53.2804
48.7742
45.7103
43.6731
42.3525
41.5187
41.0063
40.7003
40.5254
40.4405
40.445
40.607
41.1273
42.4507
45.4371
51.6697
64.2127
90.1944
151.514
351.885
1829.16
37039.4
500
500
500
500
500
500
500
500
500
48852.9
2064.69
731.314
347.92
198.65
127.332
89.3934
68.1262
55.9641
49.0035
45.0594
42.8587
41.6521
41.0022
40.6578
40.478
40.3852
40.3377
40.3135
40.301
40.2945
40.291
40.2891
40.2879
40.2872
40.2867
40.2864
40.2862
40.286
40.2859
40.2858
40.2857
40.2856
40.2855
40.2846
40.2799
40.2539
293.002
188.345
134.417
102.801
82.6305
69.0698
59.7039
53.1906
48.6954
45.6459
43.6235
42.3161
41.493
40.9887
40.689
40.5204
40.4472
40.4835
40.7328
41.469
43.2704
47.2255
55.3138
71.517
106.028
194.519
572.103
5171.74
500
500
500
500
500
500
500
500
500
500
500
5913.2
1646.91
582.36
274.853
159.274
105.574
77.1511
61.1607
51.9948
46.757
43.8033
42.1664
41.2758
40.8001
40.5502
40.4208
40.3547
40.3212
40.3043
40.2957
40.2913
40.289
40.2877
40.287
40.2865
40.2862
40.286
40.2859
40.2858
40.2857
40.2857
40.2856
40.2854
40.2846
40.2798
40.2539
293.002
188.338
134.399
102.77
82.5888
69.0206
59.652
53.1408
48.6516
45.6101
43.5961
42.2963
41.4795
40.9801
40.6843
40.5205
40.4582
40.5249
40.8541
41.7777
43.9805
48.7361
58.3774
77.992
121.846
246.315
878.165
13628.5
500
500
500
500
500
500
500
500
500
500
500
16878.9
3815.09
1096.29
426.483
214.727
129.796
89.0317
67.3581
55.3165
48.5515
44.7702
42.6827
41.548
40.9412
40.6219
40.4564
40.3718
40.3291
40.3076
40.2969
40.2916
40.2889
40.2875
40.2867
40.2863
40.2861
40.2859
40.2858
40.2857
40.2857
40.2856
40.2856
40.2854
40.2846
40.2798
40.2539
293.002
188.336
134.393
102.76
82.5753
69.005
59.6362
53.1268
48.6409
45.6036
43.5936
42.2971
41.4827
40.9847
40.69
40.5279
40.4707
40.5532
40.9229
41.9381
44.3381
49.476
59.757
80.6756
128.194
269.582
1101
21747.1
500
500
500
500
500
500
500
500
500
500
500
29071.3
6190.66
1638.65
575.205
263.91
149.158
97.7453
71.6258
57.5054
49.6994
45.3773
43.0038
41.7168
41.0291
40.6669
40.4791
40.3829
40.3343
40.31
40.2979
40.2919
40.2889
40.2874
40.2866
40.2862
40.286
40.2858
40.2857
40.2857
40.2856
40.2856
40.2856
40.2854
40.2845
40.2798
40.2539
293.002
188.338
134.399
102.77
82.5891
69.022
59.6559
53.1485
48.6641
45.6275
43.6174
42.32
41.5039
41.0038
40.7066
40.5414
40.4789
40.5489
40.8872
41.8286
44.0667
48.8827
58.6015
78.3672
122.603
248.011
877.223
13628.5
500
500
500
500
500
500
500
500
500
500
500
16878.9
3825.41
1136.52
448.04
224.604
134.562
91.5847
68.8399
56.2078
49.0902
45.0923
42.872
41.657
41.0025
40.6555
40.4743
40.381
40.3336
40.3097
40.2978
40.2919
40.2889
40.2874
40.2866
40.2862
40.286
40.2858
40.2857
40.2857
40.2856
40.2856
40.2856
40.2854
40.2845
40.2798
40.2539
293.002
188.345
134.417
102.801
82.6313
69.0728
59.7117
53.2056
48.7194
45.6787
43.6634
42.3601
41.5382
41.0327
40.7301
40.5585
40.484
40.5235
40.7844
41.5443
43.3899
47.4231
55.6425
72.1246
107.329
197.476
571.006
5171.74
500
500
500
500
500
500
500
500
500
500
500
5913.2
1648.22
613.938
293.044
168.247
110.292
79.9119
62.8936
53.1065
47.4643
44.2435
42.4329
41.4325
40.8894
40.5994
40.4469
40.3679
40.3275
40.3069
40.2966
40.2914
40.2887
40.2874
40.2867
40.2863
40.286
40.2859
40.2858
40.2857
40.2857
40.2856
40.2856
40.2854
40.2846
40.2798
40.2539
293.003
188.357
134.45
102.858
82.7089
69.1647
59.8098
53.3023
48.8087
45.7571
43.7297
42.4147
41.5823
41.0677
40.7573
40.5775
40.4893
40.4951
40.6671
41.2108
42.5781
45.6427
52.0239
64.9039
91.7061
154.892
349.548
1829.16
37039.4
500
500
500
500
500
500
500
500
500
48852.9
2064.69
731.401
357.142
205.284
131.618
92.3178
70.2034
57.4372
50.0202
45.7353
43.2905
41.9173
41.1589
40.7468
40.5265
40.4103
40.3499
40.3188
40.3029
40.2947
40.2906
40.2884
40.2873
40.2866
40.2863
40.2861
40.2859
40.2858
40.2857
40.2857
40.2856
40.2856
40.2854
40.2845
40.2798
40.2539
293.005
188.378
134.507
102.954
82.838
69.3145
59.9655
53.4507
48.9407
45.8683
43.8192
42.4844
41.6353
41.1073
40.7864
40.5971
40.4959
40.4721
40.5646
40.906
41.8069
43.8912
48.326
57.3027
75.3595
113.846
206.353
581.22
4554.59
235293
500
500
500
500
500
500
500
390580
4991.41
1371.31
529.977
264.918
157.339
105.337
77.4233
61.617
52.4763
47.1777
44.1302
42.3999
41.4322
40.8995
40.6106
40.4562
40.3747
40.3321
40.3101
40.2987
40.2928
40.2897
40.288
40.2871
40.2866
40.2863
40.286
40.2859
40.2858
40.2857
40.2856
40.2856
40.2855
40.2854
40.2845
40.2798
40.2538
293.008
188.415
134.603
103.114
83.048
69.5511
60.2039
53.6706
49.1294
46.0206
43.9361
42.5706
41.6968
41.1503
40.8157
40.6157
40.5029
40.4567
40.4895
40.6728
41.193
42.4431
45.1719
50.76
61.9143
84.7527
134.946
255.485
742.999
4592.65
39243.4
500
500
500
500
500
45821.3
4947.38
1516.05
603.451
299.37
174.145
114.17
82.396
64.5484
54.2436
48.2487
44.7754
42.784
41.6576
41.0297
40.6848
40.4979
40.3979
40.345
40.3172
40.3027
40.2951
40.291
40.2888
40.2876
40.2869
40.2865
40.2862
40.286
40.2859
40.2858
40.2857
40.2856
40.2856
40.2855
40.2853
40.2845
40.2798
40.2538
293.013
188.48
134.773
103.385
83.3875
69.917
60.5573
53.9833
49.3861
46.2182
44.0801
42.6706
41.7636
41.1933
40.8424
40.6311
40.5086
40.4473
40.4419
40.5216
40.7807
41.4344
42.9078
45.989
52.1552
64.3763
89.0676
141.304
264.517
652.394
1885.6
5417.76
14976.4
25011.6
15405.8
5661.45
2003.75
898.759
455.055
259.366
162.649
110.85
81.5864
64.5326
54.4546
48.4884
44.9783
42.9356
41.7628
41.0992
40.729
40.5254
40.4147
40.3553
40.3236
40.3068
40.2978
40.2931
40.2904
40.289
40.2881
40.2876
40.2872
40.287
40.2868
40.2867
40.2866
40.2865
40.2865
40.2864
40.2863
40.2862
40.2853
40.2806
40.2546
293.024
188.608
135.08
103.839
83.9155
70.4473
61.0359
54.3802
49.6921
46.4389
44.2306
42.7688
41.8253
41.231
40.8649
40.6442
40.5149
40.4452
40.4192
40.4416
40.5507
40.8461
41.5367
43.0179
46.0119
51.8574
63.1125
84.875
127.659
210.968
377.677
686.117
1163.58
1568.59
1315.38
810.934
470.11
291.32
190.943
131.974
96.333
74.4656
60.9829
52.6901
47.6293
44.576
42.7592
41.6941
41.0792
40.7296
40.5337
40.4253
40.366
40.3338
40.3165
40.3071
40.302
40.2992
40.2976
40.2967
40.2961
40.2957
40.2954
40.2952
40.2951
40.295
40.2949
40.2948
40.2948
40.2947
40.2947
40.2945
40.2936
40.2889
40.2628
293.045
188.861
135.617
104.531
84.6197
71.0687
61.5312
54.7441
49.9431
46.604
44.337
42.8386
41.8747
41.2706
40.9008
40.6791
40.55
40.4786
40.4442
40.4401
40.4763
40.5909
40.8704
41.4849
42.7433
45.1899
49.7669
58.0937
72.8326
97.5208
135.785
187.14
241.604
271.355
253.503
207.114
159.823
122.559
95.4453
76.4868
63.5925
55.0245
49.4504
45.8955
43.6721
42.3077
41.4855
40.9988
40.7155
40.5533
40.4617
40.4106
40.3824
40.3669
40.3584
40.3537
40.3511
40.3496
40.3487
40.3481
40.3477
40.3475
40.3473
40.3472
40.3471
40.347
40.3469
40.3469
40.3468
40.3468
40.3467
40.3466
40.3457
40.3408
40.3143
293.089
189.331
136.393
105.284
85.1733
71.3976
61.6799
54.7778
49.9274
46.5911
44.3578
42.905
41.9849
41.417
41.0741
40.8716
40.7548
40.6889
40.6536
40.6388
40.6435
40.6786
40.7743
40.9926
41.4477
42.3339
43.9648
46.8176
51.5486
58.8166
68.7676
80.173
90.0321
94.2216
91.7601
84.477
75.291
66.4569
59.0176
53.2423
49.0089
46.0404
44.0328
42.7162
41.8757
41.3521
41.0332
40.8428
40.7313
40.6672
40.6309
40.6106
40.5994
40.5933
40.59
40.5882
40.5871
40.5866
40.5862
40.586
40.5858
40.5857
40.5856
40.5856
40.5855
40.5855
40.5855
40.5854
40.5854
40.5854
40.5853
40.5851
40.5842
40.5789
40.5515
293.165
190.002
136.879
105.244
84.6696
70.6264
60.8685
54.1153
49.5092
46.4482
44.4718
43.2314
42.4724
42.0173
41.7493
41.593
41.5016
41.4476
41.4147
41.3945
41.3833
41.3829
41.4016
41.4591
41.5922
41.8626
42.3649
43.229
44.605
46.6005
49.1411
51.8174
53.913
54.7498
54.3271
52.8908
50.8771
48.7425
46.7979
45.1936
43.9627
43.0703
42.4528
42.042
41.7781
41.6137
41.5143
41.4558
41.4223
41.4037
41.3937
41.3885
41.386
41.3848
41.3843
41.3841
41.3841
41.3841
41.3842
41.3842
41.3842
41.3842
41.3842
41.3842
41.3842
41.3842
41.3842
41.3842
41.3841
41.3841
41.3841
41.3838
41.3825
41.3763
41.3463
293.237
189.683
135.16
102.567
81.7259
67.8742
58.6755
52.6845
48.886
46.5451
45.1376
44.308
43.8265
43.5482
43.387
43.2923
43.2353
43.1994
43.1751
43.157
43.1426
43.1311
43.1244
43.1281
43.1533
43.2192
43.3542
43.5937
43.9715
44.5012
45.1449
45.7909
46.2775
46.4815
46.411
46.1016
45.6383
45.1208
44.6286
44.2087
43.8783
43.6347
43.4644
43.3506
43.2774
43.2317
43.2038
43.1871
43.1772
43.1712
43.1675
43.1651
43.1635
43.1623
43.1614
43.1606
43.16
43.1595
43.1591
43.1587
43.1584
43.1581
43.1579
43.1578
43.1576
43.1575
43.1574
43.1573
43.1573
43.1572
43.1571
43.1566
43.1545
43.1456
43.1094
293.474
184.576
128.123
95.4307
75.3544
62.9806
55.4924
51.0643
48.504
47.0499
46.2347
45.7824
45.534
45.399
45.3278
45.2928
45.2795
45.2799
45.2899
45.3075
45.332
45.3635
45.4034
45.4546
45.5227
45.6163
45.747
45.9268
46.1627
46.4496
46.7627
47.0551
47.2722
47.3689
47.3356
47.1871
46.9595
46.6932
46.4238
46.1758
45.9625
45.7873
45.6479
45.5393
45.4553
45.3905
45.3404
45.3013
45.2708
45.2468
45.2278
45.2128
45.201
45.1916
45.1842
45.1784
45.1738
45.1702
45.1673
45.1651
45.1633
45.162
45.1609
45.1601
45.1594
45.1589
45.1585
45.1582
45.158
45.1578
45.1574
45.1565
45.1528
45.1388
45.0909
)
;

boundaryField
{
    ibCylinder
    {
        type            immersedBoundaryOmegaWallFunction;
        patchType       immersedBoundary;
        blending        stepwise;
        setDeadValue    true;
        deadValue       500;
        value           nonuniform List<scalar> 0();
    }
    in
    {
        type            fixedValue;
        value           uniform 500;
    }
    out
    {
        type            inletOutlet;
        inletValue      uniform 500;
        value           nonuniform List<scalar> 
25
(
45.3111
43.2507
41.4312
40.5958
40.3327
40.2689
40.2563
40.2542
40.2539
40.2539
40.2539
40.2539
40.2539
40.2539
40.2539
40.2539
40.2538
40.2538
40.2546
40.2628
40.3143
40.5515
41.3463
43.1094
45.0909
)
;
    }
    top
    {
        type            zeroGradient;
    }
    bottom
    {
        type            zeroGradient;
    }
    frontAndBack
    {
        type            empty;
    }
}


// ************************************************************************* //
