/*--------------------------------*- C++ -*----------------------------------*\
| =========                 |                                                 |
| \\      /  F ield         | OpenFOAM: The Open Source CFD Toolbox           |
|  \\    /   O peration     | Version:  2206                                  |
|   \\  /    A nd           | Website:  www.openfoam.com                      |
|    \\/     M anipulation  |                                                 |
\*---------------------------------------------------------------------------*/
FoamFile
{
    version     2.0;
    format      ascii;
    arch        "LSB;label=32;scalar=64";
    class       volScalarField;
    location    "0.3";
    object      p;
}
// * * * * * * * * * * * * * * * * * * * * * * * * * * * * * * * * * * * * * //

dimensions      [0 2 -2 0 0 0 0];

internalField   nonuniform List<scalar> 
1875
(
3.27953
2.8904
2.63955
2.54169
2.48253
2.43775
2.4066
2.38622
2.37225
2.36146
2.35213
2.34317
2.33391
2.32385
2.31271
2.30038
2.28666
2.27136
2.25422
2.23487
2.21285
2.18756
2.15826
2.12407
2.08396
2.03681
1.98141
1.9166
1.84136
1.75502
1.65755
1.54982
1.43366
1.31172
1.18792
1.06684
0.952191
0.846842
0.752607
0.670133
0.599227
0.539106
0.488514
0.446034
0.410279
0.379988
0.354075
0.331622
0.311883
0.294258
0.278272
0.26355
0.249798
0.236787
0.224341
0.212326
0.200638
0.189198
0.177945
0.166835
0.155831
0.144908
0.134046
0.123229
0.112447
0.10169
0.0909518
0.0802279
0.0695141
0.0588085
0.0481086
0.0374132
0.0267211
0.016031
0.005343
2.90481
2.74935
2.62093
2.54343
2.49044
2.44851
2.41645
2.39415
2.37824
2.3657
2.35509
2.34528
2.33543
2.32501
2.31371
2.3013
2.28757
2.27235
2.25537
2.23625
2.21453
2.18961
2.16076
2.12709
2.08754
2.04094
1.98604
1.92157
1.84639
1.7597
1.66139
1.55235
1.43438
1.31047
1.18495
1.06242
0.946782
0.841002
0.746835
0.664741
0.594407
0.534986
0.48511
0.443292
0.408108
0.378298
0.352777
0.330637
0.31114
0.293703
0.277861
0.263247
0.249576
0.236626
0.224225
0.212242
0.200578
0.189155
0.177915
0.166814
0.155817
0.144898
0.134039
0.123225
0.112444
0.101688
0.0909507
0.0802272
0.0695138
0.0588082
0.0481085
0.0374132
0.0267212
0.0160314
0.00534315
2.72825
2.67796
2.60754
2.54913
2.5019
2.46153
2.42982
2.40577
2.38732
2.37253
2.36037
2.3494
2.33871
2.32781
2.31632
2.30391
2.29037
2.27548
2.25901
2.24059
2.21977
2.19594
2.16837
2.13614
2.09813
2.0531
1.9996
1.93609
1.86107
1.77331
1.67231
1.5591
1.43572
1.30584
1.1749
1.04826
0.930129
0.823593
0.730006
0.649367
0.581013
0.52374
0.475937
0.435961
0.40233
0.373799
0.349315
0.327992
0.30913
0.292186
0.276724
0.2624
0.248948
0.23616
0.223881
0.211989
0.200392
0.18902
0.177817
0.166742
0.155765
0.144861
0.134013
0.123206
0.112431
0.101679
0.0909447
0.0802231
0.0695112
0.0588066
0.0481075
0.0374128
0.0267211
0.0160316
0.0053433
2.6493
2.62848
2.58365
2.53995
2.50217
2.46918
2.44096
2.41672
2.39729
2.38149
2.36811
2.35579
2.34397
2.33244
2.32071
2.30839
2.29525
2.28101
2.26546
2.24831
2.22909
2.20723
2.18197
2.15237
2.1172
2.07504
2.02427
1.96285
1.88853
1.79901
1.69284
1.57155
1.43851
1.29736
1.15541
1.02072
0.89831
0.790906
0.698953
0.62152
0.557205
0.504016
0.460011
0.42327
0.392328
0.366022
0.343338
0.323415
0.30563
0.289533
0.274726
0.260905
0.247834
0.23533
0.223264
0.211533
0.200055
0.188771
0.177634
0.166609
0.155667
0.14479
0.133961
0.123169
0.112405
0.101661
0.0909317
0.0802142
0.0695051
0.0588026
0.0481051
0.0374115
0.0267206
0.0160316
0.00534342
2.59723
2.58649
2.55915
2.52748
2.49816
2.47114
2.44643
2.42509
2.40654
2.38995
2.37559
2.36246
2.35009
2.33826
2.32645
2.31434
2.3017
2.28833
2.27405
2.25857
2.24154
2.22243
2.2005
2.17483
2.14423
2.10663
2.06019
2.00257
1.93022
1.83858
1.72364
1.58785
1.43669
1.28035
1.1256
0.979444
0.850948
0.742359
0.652996
0.580581
0.522658
0.475828
0.437395
0.405326
0.378248
0.355196
0.335126
0.317168
0.300863
0.285928
0.272009
0.258851
0.246279
0.234161
0.222391
0.210883
0.199573
0.188414
0.17737
0.166413
0.155524
0.144686
0.133885
0.123114
0.112365
0.101632
0.0909114
0.0801999
0.0694953
0.058796
0.0481009
0.037409
0.0267193
0.0160311
0.00534341
2.56133
2.5552
2.53793
2.51534
2.49251
2.47043
2.4495
2.43005
2.41229
2.39634
2.38184
2.36848
2.35614
2.34418
2.33236
2.32059
2.30873
2.29665
2.28415
2.27097
2.25662
2.24077
2.22302
2.20243
2.17776
2.14705
2.10791
2.05691
1.98935
1.89743
1.77463
1.63226
1.44401
1.2525
1.07832
0.91097
0.770321
0.666234
0.587624
0.525063
0.47662
0.438847
0.408183
0.38258
0.360727
0.341707
0.324711
0.309165
0.29485
0.281468
0.26868
0.25634
0.244375
0.232727
0.221318
0.210083
0.198979
0.187972
0.177041
0.16617
0.155345
0.144554
0.133789
0.123044
0.112314
0.101595
0.0908851
0.0801813
0.0694823
0.0587872
0.0480951
0.0374054
0.0267173
0.0160302
0.00534331
2.53618
2.53231
2.52062
2.50409
2.48611
2.46793
2.44998
2.43264
2.41639
2.40123
2.38699
2.37377
2.36146
2.34963
2.33811
2.32694
2.31614
2.30555
2.29499
2.2843
2.27315
2.26134
2.24863
2.23427
2.21715
2.19566
2.16725
2.12783
2.07278
1.99421
1.86115
1.72264
1.49313
1.23151
1.01826
0.797262
0.629909
0.546584
0.48974
0.44896
0.418375
0.393466
0.373197
0.355897
0.340346
0.326041
0.312655
0.300012
0.287946
0.276218
0.264714
0.25338
0.242181
0.231094
0.2201
0.209181
0.198313
0.187478
0.17667
0.165894
0.155141
0.144404
0.133679
0.122964
0.112255
0.101552
0.0908542
0.0801592
0.0694668
0.0587766
0.0480881
0.0374009
0.0267147
0.016029
0.0053432
2.51808
2.51535
2.50692
2.49438
2.47995
2.46473
2.4492
2.43377
2.41883
2.40451
2.39092
2.3781
2.36603
2.3546
2.34369
2.33331
2.32359
2.31444
2.30579
2.29765
2.29004
2.28286
2.27596
2.26896
2.26109
2.25124
2.23685
2.21406
2.17622
2.11883
1.99844
0
0
0
0
0
0.585956
0.425433
0.374904
0.35713
0.350318
0.341372
0.333778
0.326412
0.318164
0.309287
0.300016
0.290466
0.280668
0.270658
0.260491
0.250203
0.239809
0.229322
0.218769
0.208179
0.197566
0.186928
0.176266
0.165594
0.154918
0.144241
0.133561
0.122877
0.112191
0.101505
0.0908199
0.0801346
0.0694494
0.0587645
0.0480798
0.0373955
0.0267114
0.0160274
0.00534293
2.50495
2.50287
2.49641
2.4865
2.47461
2.4616
2.44794
2.43404
2.42025
2.4068
2.39385
2.38151
2.36984
2.35885
2.34855
2.339
2.33034
2.32265
2.316
2.31056
2.30652
2.30404
2.30328
2.30427
2.30671
2.31035
2.31276
2.30285
2.27079
2.3909
0
0
0
0
0
0
0
0.323235
0.27751
0.261876
0.276514
0.287832
0.293562
0.296358
0.29595
0.292729
0.28757
0.281085
0.273597
0.265333
0.256475
0.247165
0.237509
0.227585
0.21746
0.207189
0.196813
0.186363
0.175851
0.165288
0.154691
0.144071
0.133435
0.122787
0.112125
0.101457
0.0907847
0.0801094
0.0694318
0.0587522
0.0480713
0.0373898
0.0267079
0.0160256
0.00534254
2.49562
2.49393
2.48867
2.48047
2.47034
2.45892
2.44663
2.43389
2.42105
2.40833
2.39595
2.38408
2.37283
2.3623
2.35258
2.34377
2.33609
2.32974
2.32494
2.32198
2.32128
2.3233
2.32855
2.33753
2.35033
2.36735
2.38282
2.38687
2.53681
0
0
0
0
0
0
0
0
0
0.15175
0.171366
0.203906
0.237363
0.256459
0.268763
0.275675
0.277739
0.276388
0.272704
0.267307
0.260606
0.252916
0.244481
0.235484
0.226061
0.216316
0.206332
0.196171
0.185878
0.175484
0.165013
0.154485
0.143916
0.133318
0.122698
0.112061
0.101411
0.0907506
0.0800844
0.069414
0.0587401
0.048063
0.0373842
0.0267044
0.0160237
0.00534213
2.48937
2.48791
2.48338
2.47624
2.46724
2.45689
2.44554
2.43361
2.42145
2.40929
2.39736
2.38586
2.37497
2.36484
2.3556
2.3474
2.34049
2.33522
2.33191
2.33102
2.33313
2.33902
2.34966
2.36615
2.38916
2.41863
2.43713
2.40646
0
0
0
0
0
0
0
0
0
0
0
0.0881932
0.140556
0.194941
0.22693
0.246928
0.259529
0.265804
0.267511
0.266077
0.262346
0.256885
0.25012
0.242376
0.233899
0.224867
0.21542
0.20566
0.195666
0.185498
0.175198
0.164799
0.154326
0.143798
0.133229
0.122632
0.112011
0.101373
0.0907231
0.080064
0.0693986
0.0587288
0.0480553
0.0373791
0.0267011
0.0160216
0.00534153
2.48577
2.48443
2.48029
2.47372
2.46536
2.45563
2.44484
2.43338
2.42162
2.40981
2.39816
2.3869
2.37624
2.36636
2.35746
2.34969
2.3433
2.33869
2.33637
2.33685
2.34089
2.34955
2.36425
2.38684
2.41964
2.46515
2.49167
2.29413
0
0
0
0
0
0
0
0
0
0
0
0.0123613
0.0916482
0.165653
0.207387
0.232775
0.249138
0.258149
0.261797
0.261821
0.259167
0.254502
0.248331
0.241031
0.232886
0.224105
0.214846
0.205229
0.195342
0.185254
0.175014
0.164661
0.154223
0.143721
0.133173
0.122589
0.111979
0.10135
0.0907058
0.0800514
0.0693895
0.0587221
0.0480504
0.0373758
0.0266988
0.0160201
0.00534098
2.48459
2.48329
2.47928
2.47288
2.46473
2.4552
2.44459
2.43329
2.42166
2.40997
2.39841
2.38723
2.37665
2.36685
2.35805
2.35048
2.3443
2.33988
2.33788
2.33885
2.34357
2.35319
2.36927
2.39381
2.42957
2.47841
2.50224
2.35652
0
0
0
0
0
0
0
0
0
0
0
-0.0137417
0.0726335
0.155035
0.2005
0.227798
0.245526
0.255501
0.259825
0.260348
0.258066
0.253676
0.247709
0.240563
0.232533
0.223839
0.214645
0.205077
0.195228
0.185167
0.174949
0.164612
0.154186
0.143693
0.133152
0.122573
0.111967
0.101341
0.0906993
0.0800467
0.0693861
0.0587196
0.0480487
0.0373746
0.026698
0.0160196
0.00534087
2.48575
2.48441
2.48027
2.4737
2.46534
2.45561
2.44482
2.43336
2.4216
2.40979
2.39814
2.38688
2.37622
2.36634
2.35743
2.34967
2.34328
2.33867
2.33635
2.33683
2.34087
2.34954
2.36423
2.38681
2.41959
2.46513
2.4916
2.29425
0
0
0
0
0
0
0
0
0
0
0
0.012345
0.0916329
0.165634
0.207365
0.232751
0.249115
0.258126
0.261773
0.261797
0.259144
0.254481
0.248311
0.241013
0.232869
0.22409
0.214833
0.205217
0.195332
0.185245
0.175007
0.164655
0.154218
0.143717
0.133169
0.122586
0.111977
0.101348
0.0907042
0.0800502
0.0693887
0.0587215
0.04805
0.0373754
0.0266985
0.0160199
0.0053409
2.48932
2.48786
2.48334
2.47619
2.46719
2.45684
2.4455
2.43357
2.42141
2.40925
2.39732
2.38581
2.37492
2.36479
2.35555
2.34736
2.34045
2.33518
2.33188
2.33098
2.33309
2.33898
2.34962
2.3661
2.38908
2.41859
2.43723
2.40671
0
0
0
0
0
0
0
0
0
0
0
0.0881373
0.140506
0.194896
0.226881
0.246881
0.259485
0.265759
0.267465
0.266031
0.262302
0.256843
0.250081
0.242341
0.233866
0.224839
0.215394
0.205637
0.195647
0.185481
0.175183
0.164786
0.154315
0.143789
0.133222
0.122625
0.112006
0.101369
0.0907199
0.0800617
0.0693971
0.0587277
0.0480544
0.0373783
0.0267003
0.0160212
0.00534131
2.49555
2.49386
2.4886
2.4804
2.47027
2.45885
2.44656
2.43383
2.42098
2.40827
2.39589
2.38401
2.37276
2.36223
2.35251
2.34371
2.33603
2.32968
2.32488
2.32193
2.32123
2.32324
2.32849
2.33746
2.35025
2.36731
2.38286
2.38696
2.53688
0
0
0
0
0
0
0
0
0
0.151588
0.17126
0.203824
0.237291
0.256387
0.26869
0.275607
0.27767
0.276318
0.272637
0.267243
0.260546
0.25286
0.24443
0.235438
0.226019
0.21628
0.2063
0.196143
0.185853
0.175463
0.164995
0.15447
0.143903
0.133307
0.122689
0.112054
0.101405
0.0907461
0.0800812
0.0694118
0.0587385
0.0480617
0.037383
0.0267034
0.016023
0.00534176
2.50486
2.50278
2.49631
2.48641
2.47452
2.46151
2.44786
2.43396
2.42017
2.40672
2.39377
2.38143
2.36975
2.35877
2.34847
2.33892
2.33027
2.32258
2.31593
2.31049
2.30645
2.30397
2.3032
2.30419
2.30663
2.31029
2.31273
2.30281
2.27064
2.39059
0
0
0
0
0
0
0
0.323092
0.277357
0.26175
0.276406
0.287729
0.293467
0.296265
0.295859
0.292638
0.287482
0.281
0.273516
0.265256
0.256404
0.247101
0.237451
0.227533
0.217415
0.207149
0.196778
0.186333
0.175825
0.165266
0.154672
0.144055
0.133422
0.122776
0.112116
0.101449
0.090779
0.0801054
0.069429
0.0587502
0.0480697
0.0373883
0.0267067
0.0160247
0.0053421
2.51797
2.51524
2.50681
2.49427
2.47984
2.46463
2.4491
2.43367
2.41873
2.40442
2.39083
2.378
2.36593
2.3545
2.34359
2.33322
2.3235
2.31435
2.3057
2.29757
2.28995
2.28277
2.27587
2.26886
2.26098
2.25114
2.23675
2.21395
2.17602
2.1185
1.99817
0
0
0
0
0
0.585727
0.425227
0.374724
0.356979
0.350187
0.34125
0.333658
0.326302
0.318056
0.309181
0.299914
0.290368
0.280573
0.270569
0.260409
0.250128
0.239741
0.229261
0.218716
0.208132
0.197526
0.186893
0.176237
0.165568
0.154897
0.144223
0.133546
0.122864
0.11218
0.101497
0.0908133
0.0801299
0.0694462
0.0587622
0.048078
0.0373939
0.0267101
0.0160265
0.00534247
2.53605
2.53218
2.5205
2.50396
2.48599
2.46781
2.44986
2.43252
2.41627
2.40111
2.38688
2.37365
2.36135
2.34952
2.338
2.32683
2.31604
2.30545
2.29489
2.2842
2.27304
2.26124
2.24851
2.23415
2.21702
2.19552
2.1671
2.12766
2.07254
1.99392
1.86084
1.72232
1.49284
1.23119
1.01799
0.797048
0.629676
0.546355
0.489552
0.448799
0.418222
0.393323
0.373063
0.35577
0.340225
0.325925
0.312543
0.299904
0.287843
0.276121
0.264624
0.253298
0.242107
0.231028
0.220042
0.20913
0.198269
0.18744
0.176638
0.165866
0.155117
0.144384
0.133663
0.12295
0.112244
0.101543
0.0908471
0.0801542
0.0694634
0.0587742
0.0480862
0.0373994
0.0267134
0.0160281
0.00534276
2.56119
2.55506
2.53779
2.5152
2.49237
2.4703
2.44937
2.42992
2.41216
2.39621
2.38171
2.36836
2.35602
2.34406
2.33224
2.32047
2.30862
2.29654
2.28404
2.27086
2.2565
2.24064
2.22288
2.20228
2.17761
2.14688
2.10773
2.0567
1.98911
1.89716
1.77435
1.63198
1.44373
1.25223
1.07805
0.91072
0.770082
0.666001
0.587419
0.524886
0.476451
0.438685
0.408034
0.38244
0.360595
0.341582
0.324591
0.309049
0.29474
0.281365
0.268584
0.256253
0.244297
0.232658
0.221257
0.210029
0.198932
0.187932
0.177007
0.166141
0.15532
0.144533
0.133772
0.12303
0.112302
0.101586
0.0908778
0.0801761
0.0694788
0.0587848
0.0480934
0.037404
0.0267162
0.0160295
0.00534299
2.59707
2.58634
2.55899
2.52733
2.49801
2.471
2.44628
2.42495
2.4064
2.38981
2.37546
2.36232
2.34996
2.33813
2.32632
2.31422
2.30158
2.28821
2.27392
2.25845
2.24141
2.22228
2.20035
2.17467
2.14405
2.10644
2.05999
2.00235
1.92997
1.83831
1.72336
1.58757
1.43641
1.28009
1.12534
0.979192
0.850708
0.742136
0.652788
0.580384
0.522473
0.475654
0.437234
0.405176
0.378108
0.355064
0.335002
0.317049
0.30075
0.285822
0.271912
0.258763
0.246199
0.234091
0.222329
0.210828
0.199526
0.188374
0.177335
0.166384
0.1555
0.144665
0.133868
0.1231
0.112353
0.101623
0.0909042
0.0801948
0.0694918
0.0587938
0.0480994
0.037408
0.0267186
0.0160308
0.00534323
2.64914
2.62832
2.58349
2.53978
2.50201
2.46902
2.4408
2.41657
2.39714
2.38134
2.36796
2.35564
2.34383
2.3323
2.32057
2.30825
2.29512
2.28087
2.26533
2.24817
2.22895
2.20707
2.1818
2.15219
2.117
2.07483
2.02405
1.96262
1.88827
1.79874
1.69256
1.57127
1.43823
1.29709
1.15515
1.02047
0.898072
0.790679
0.698738
0.621316
0.557014
0.503837
0.459843
0.423115
0.392183
0.365887
0.343212
0.323296
0.305518
0.289428
0.274629
0.260817
0.247754
0.23526
0.223202
0.211478
0.200008
0.188731
0.1776
0.166579
0.155643
0.14477
0.133945
0.123155
0.112393
0.101651
0.0909248
0.0802092
0.0695019
0.0588006
0.048104
0.0374109
0.0267203
0.0160316
0.00534334
2.72808
2.6778
2.60738
2.54896
2.50173
2.46137
2.42966
2.40561
2.38717
2.37238
2.36022
2.34925
2.33857
2.32767
2.31618
2.30377
2.29023
2.27534
2.25887
2.24045
2.21961
2.19577
2.16819
2.13594
2.09793
2.05289
1.99937
1.93584
1.86081
1.77303
1.67203
1.55882
1.43545
1.30557
1.17464
1.04801
0.929888
0.823363
0.729788
0.64916
0.580818
0.523558
0.475767
0.435804
0.402184
0.373664
0.349189
0.327873
0.309018
0.292082
0.276628
0.262313
0.248869
0.23609
0.223819
0.211935
0.200346
0.188979
0.177782
0.166713
0.155741
0.144841
0.133996
0.123192
0.11242
0.10167
0.0909379
0.0802182
0.0695079
0.0588046
0.0481065
0.0374124
0.0267211
0.0160318
0.00534333
2.90464
2.74918
2.62075
2.54325
2.49027
2.44835
2.41628
2.39399
2.37808
2.36554
2.35494
2.34513
2.33528
2.32486
2.31356
2.30115
2.28742
2.27221
2.25522
2.2361
2.21436
2.18943
2.16057
2.12689
2.08733
2.04072
1.9858
1.92132
1.84613
1.75942
1.66112
1.55208
1.43411
1.31021
1.18469
1.06217
0.946541
0.840771
0.746614
0.664531
0.59421
0.534802
0.484939
0.443134
0.407962
0.378163
0.352651
0.330519
0.31103
0.293601
0.277767
0.263161
0.249499
0.236556
0.224163
0.212188
0.200531
0.189115
0.177881
0.166785
0.155792
0.144878
0.134022
0.123211
0.112433
0.101679
0.0909439
0.0802222
0.0695104
0.0588062
0.0481074
0.0374128
0.0267212
0.0160317
0.00534323
3.27935
2.89023
2.63937
2.54152
2.48236
2.43758
2.40643
2.38606
2.37208
2.3613
2.35198
2.34302
2.33376
2.3237
2.31256
2.30024
2.28651
2.27121
2.25407
2.23471
2.21268
2.18738
2.15807
2.12386
2.08375
2.03658
1.98117
1.91635
1.8411
1.75475
1.65728
1.54955
1.43339
1.31145
1.18766
1.06658
0.951949
0.846609
0.752385
0.669923
0.59903
0.538923
0.488344
0.445878
0.410134
0.379855
0.353951
0.331506
0.311775
0.294158
0.27818
0.263466
0.249721
0.236718
0.22428
0.212273
0.200592
0.189158
0.177912
0.166806
0.155807
0.144888
0.134029
0.123216
0.112436
0.101681
0.090945
0.0802227
0.0695107
0.0588063
0.0481074
0.0374127
0.026721
0.0160313
0.00534308
)
;

boundaryField
{
    ibCylinder
    {
        type            zeroGradientIb;
        patchType       immersedBoundary;
        setDeadValue    true;
        deadValue       0;
        value           nonuniform List<scalar> 0();
    }
    in
    {
        type            zeroGradient;
    }
    out
    {
        type            fixedValue;
        value           uniform 0;
    }
    top
    {
        type            zeroGradient;
    }
    bottom
    {
        type            zeroGradient;
    }
    frontAndBack
    {
        type            empty;
    }
}


// ************************************************************************* //
