/*--------------------------------*- C++ -*----------------------------------*\
| =========                 |                                                 |
| \\      /  F ield         | OpenFOAM: The Open Source CFD Toolbox           |
|  \\    /   O peration     | Version:  2206                                  |
|   \\  /    A nd           | Website:  www.openfoam.com                      |
|    \\/     M anipulation  |                                                 |
\*---------------------------------------------------------------------------*/
FoamFile
{
    version     2.0;
    format      ascii;
    arch        "LSB;label=32;scalar=64";
    class       surfaceVectorField;
    location    "0.3";
    object      Uf;
}
// * * * * * * * * * * * * * * * * * * * * * * * * * * * * * * * * * * * * * //

dimensions      [0 1 -1 0 0 0 0];

internalField   nonuniform List<vector> 
3650
(
(0.8598 0.0529789 0)
(0.903141 0.140201 0)
(0.702079 0.0841458 0)
(0.900391 0.15772 0)
(0.5692 0.0657457 0)
(0.843729 0.13288 0)
(0.467311 0.0362792 0)
(0.754067 0.101888 0)
(0.393923 0.018204 0)
(0.676635 0.0733885 0)
(0.344766 0.00924328 0)
(0.616091 0.049157 0)
(0.312648 0.00446562 0)
(0.570815 0.0321183 0)
(0.292519 0.00185322 0)
(0.537505 0.020129 0)
(0.280596 0.000508833 0)
(0.514503 0.0119232 0)
(0.273948 -0.000133674 0)
(0.499627 0.00664852 0)
(0.270641 -0.000440118 0)
(0.490488 0.00330704 0)
(0.269409 -0.000587167 0)
(0.48529 0.00123252 0)
(0.269446 -0.000662749 0)
(0.482749 -3.78017e-05 0)
(0.270239 -0.000721464 0)
(0.481856 -0.000792258 0)
(0.271534 -0.000800336 0)
(0.482171 -0.0012946 0)
(0.273292 -0.000906914 0)
(0.483265 -0.00175833 0)
(0.2755 -0.00105026 0)
(0.485075 -0.00220796 0)
(0.278216 -0.00124169 0)
(0.487547 -0.00271559 0)
(0.281527 -0.00148495 0)
(0.490715 -0.00331117 0)
(0.285545 -0.00178245 0)
(0.494662 -0.0040172 0)
(0.290393 -0.00213408 0)
(0.4995 -0.00484769 0)
(0.296197 -0.00253538 0)
(0.505355 -0.00580417 0)
(0.303074 -0.00297634 0)
(0.512354 -0.006877 0)
(0.31111 -0.00343853 0)
(0.520606 -0.00803614 0)
(0.320349 -0.00389409 0)
(0.530184 -0.00923944 0)
(0.330781 -0.00430108 0)
(0.541138 -0.0104319 0)
(0.342305 -0.00459704 0)
(0.553473 -0.0115234 0)
(0.35467 -0.00469849 0)
(0.567098 -0.0123647 0)
(0.367406 -0.00450567 0)
(0.581744 -0.0127371 0)
(0.379752 -0.00392906 0)
(0.596836 -0.0123454 0)
(0.390638 -0.00293168 0)
(0.61141 -0.0108865 0)
(0.398798 -0.00157354 0)
(0.62399 -0.00815986 0)
(0.40306 -1.27821e-05 0)
(0.632784 -0.00426202 0)
(0.402905 0.00163766 0)
(0.636392 0.000154637 0)
(0.398146 0.00315772 0)
(0.634564 0.00475978 0)
(0.389259 0.0042824 0)
(0.627012 0.00888648 0)
(0.37733 0.00494183 0)
(0.614744 0.0119289 0)
(0.363691 0.00515629 0)
(0.599372 0.0136389 0)
(0.3496 0.00501273 0)
(0.582593 0.0140913 0)
(0.33603 0.00462233 0)
(0.56583 0.0135697 0)
(0.323636 0.00408499 0)
(0.550218 0.0123947 0)
(0.312776 0.00348885 0)
(0.53632 0.0108601 0)
(0.303554 0.00290372 0)
(0.5244 0.00922177 0)
(0.295901 0.00237103 0)
(0.514444 0.00765261 0)
(0.289656 0.00190853 0)
(0.506281 0.00624563 0)
(0.284621 0.00151925 0)
(0.499673 0.00503463 0)
(0.2806 0.00119906 0)
(0.494374 0.00402115 0)
(0.27741 0.000940182 0)
(0.490153 0.00318958 0)
(0.274893 0.000733262 0)
(0.486807 0.00251657 0)
(0.272917 0.000569139 0)
(0.484164 0.00197631 0)
(0.271371 0.000439899 0)
(0.482086 0.00154552 0)
(0.270167 0.000338767 0)
(0.480457 0.00120436 0)
(0.269231 0.000260106 0)
(0.479183 0.000935543 0)
(0.268506 0.000199229 0)
(0.47819 0.000725027 0)
(0.267945 0.000152287 0)
(0.477418 0.000560527 0)
(0.267513 0.000116183 0)
(0.476819 0.000432562 0)
(0.267179 8.84823e-05 0)
(0.476354 0.000333054 0)
(0.266923 6.72536e-05 0)
(0.475995 0.000256152 0)
(0.266726 5.1014e-05 0)
(0.475717 0.000196622 0)
(0.266575 3.86229e-05 0)
(0.475504 0.00015083 0)
(0.266459 2.91984e-05 0)
(0.475339 0.00011544 0)
(0.266371 2.2037e-05 0)
(0.475212 8.83323e-05 0)
(0.266303 1.65864e-05 0)
(0.475114 6.73795e-05 0)
(0.266252 1.24232e-05 0)
(0.47504 5.13826e-05 0)
(0.266213 9.24946e-06 0)
(0.474982 3.89947e-05 0)
(0.266183 6.85495e-06 0)
(0.474939 2.95849e-05 0)
(0.266161 5.07504e-06 0)
(0.474906 2.23087e-05 0)
(0.266144 3.75733e-06 0)
(0.47488 1.68673e-05 0)
(0.266131 2.76928e-06 0)
(0.474861 1.26419e-05 0)
(0.266122 2.01484e-06 0)
(0.474847 9.49338e-06 0)
(0.266114 1.41188e-06 0)
(0.474836 6.99088e-06 0)
(0.266109 9.49747e-07 0)
(0.474828 5.09749e-06 0)
(0.266106 5.75576e-07 0)
(0.474822 3.54446e-06 0)
(0.266103 3.05907e-07 0)
(0.474818 2.39695e-06 0)
(0.474815 1.42438e-06 0)
(1.05164 0.154533 0)
(1.01331 0.0885626 0)
(1.0473 0.181863 0)
(1.05551 0.16206 0)
(1.01135 0.165905 0)
(1.06719 0.16883 0)
(0.958455 0.139358 0)
(1.04975 0.154783 0)
(0.898532 0.106115 0)
(1.01652 0.133311 0)
(0.841714 0.074066 0)
(0.977608 0.105976 0)
(0.794512 0.0492351 0)
(0.939979 0.07932 0)
(0.758559 0.0311893 0)
(0.906083 0.0560826 0)
(0.733056 0.0187092 0)
(0.878107 0.0374262 0)
(0.715851 0.0104394 0)
(0.857196 0.0238537 0)
(0.704937 0.00512354 0)
(0.842295 0.0142207 0)
(0.698495 0.00180639 0)
(0.832321 0.007675 0)
(0.695085 -0.000217157 0)
(0.826044 0.00337233 0)
(0.693743 -0.00146658 0)
(0.822416 0.000549597 0)
(0.693839 -0.00239396 0)
(0.820767 -0.00139012 0)
(0.694991 -0.00324383 0)
(0.820518 -0.00290983 0)
(0.697034 -0.00409842 0)
(0.821383 -0.00425115 0)
(0.69993 -0.00504802 0)
(0.823215 -0.00561141 0)
(0.703703 -0.00615294 0)
(0.825967 -0.00708374 0)
(0.708435 -0.007448 0)
(0.829666 -0.00874868 0)
(0.714242 -0.00894683 0)
(0.834389 -0.0106546 0)
(0.721254 -0.0106431 0)
(0.840244 -0.0128167 0)
(0.729597 -0.0125082 0)
(0.847349 -0.0152195 0)
(0.739375 -0.0144902 0)
(0.855811 -0.0178147 0)
(0.750671 -0.0165182 0)
(0.865714 -0.0205354 0)
(0.763557 -0.0184838 0)
(0.877164 -0.023318 0)
(0.778065 -0.0201938 0)
(0.89032 -0.0260311 0)
(0.794096 -0.0213367 0)
(0.905329 -0.0283955 0)
(0.811289 -0.021467 0)
(0.922212 -0.0299304 0)
(0.828849 -0.0200362 0)
(0.940604 -0.0299053 0)
(0.845346 -0.0165691 0)
(0.95949 -0.0273831 0)
(0.858809 -0.0109556 0)
(0.976975 -0.0216231 0)
(0.867173 -0.0038336 0)
(0.990391 -0.0126266 0)
(0.869144 0.00391329 0)
(0.997243 -0.00181568 0)
(0.864296 0.0114247 0)
(0.996587 0.00960721 0)
(0.853115 0.0176168 0)
(0.98819 0.0200679 0)
(0.837116 0.0217285 0)
(0.973338 0.0279272 0)
(0.818334 0.0236138 0)
(0.954281 0.0324214 0)
(0.798704 0.0235781 0)
(0.933436 0.0337214 0)
(0.779768 0.0221298 0)
(0.91283 0.0325061 0)
(0.762556 0.0198114 0)
(0.893951 0.0296063 0)
(0.747575 0.017106 0)
(0.877476 0.0258409 0)
(0.734939 0.0143767 0)
(0.863638 0.0218581 0)
(0.724511 0.0118475 0)
(0.852307 0.0180811 0)
(0.716029 0.00962415 0)
(0.84317 0.0147268 0)
(0.709201 0.00773535 0)
(0.835869 0.0118624 0)
(0.703744 0.00616824 0)
(0.830067 0.00947833 0)
(0.699402 0.00488926 0)
(0.825472 0.00753124 0)
(0.69596 0.0038564 0)
(0.821836 0.00595884 0)
(0.69324 0.00302841 0)
(0.818962 0.00469606 0)
(0.691098 0.00236909 0)
(0.816696 0.00368762 0)
(0.689416 0.00184722 0)
(0.814912 0.00288642 0)
(0.688099 0.00143636 0)
(0.81351 0.00225315 0)
(0.687069 0.00111425 0)
(0.812411 0.00175479 0)
(0.686265 0.000862443 0)
(0.81155 0.00136382 0)
(0.68564 0.00066615 0)
(0.810877 0.00105759 0)
(0.685154 0.000513621 0)
(0.810352 0.00081859 0)
(0.684778 0.000395461 0)
(0.809943 0.000632577 0)
(0.684486 0.000304096 0)
(0.809625 0.00048827 0)
(0.68426 0.000233531 0)
(0.809378 0.000376384 0)
(0.684086 0.000179073 0)
(0.809187 0.00028978 0)
(0.683951 0.000137089 0)
(0.809038 0.000222716 0)
(0.683848 0.000104752 0)
(0.808923 0.000170907 0)
(0.683768 7.98811e-05 0)
(0.808834 0.000130872 0)
(0.683707 6.0768e-05 0)
(0.808766 0.000100034 0)
(0.68366 4.61071e-05 0)
(0.808713 7.62651e-05 0)
(0.683624 3.48848e-05 0)
(0.808673 5.80195e-05 0)
(0.683597 2.63089e-05 0)
(0.808642 4.39869e-05 0)
(0.683576 1.97489e-05 0)
(0.808618 3.32315e-05 0)
(0.683561 1.47104e-05 0)
(0.8086 2.4943e-05 0)
(0.683549 1.08224e-05 0)
(0.808587 1.85386e-05 0)
(0.683541 7.75973e-06 0)
(0.808577 1.36025e-05 0)
(0.683534 5.42236e-06 0)
(0.808569 9.60157e-06 0)
(0.68353 3.54592e-06 0)
(0.808564 6.7741e-06 0)
(0.808559 3.94998e-06 0)
(1.03962 0.110916 0)
(1.00912 0.0489441 0)
(1.08174 0.156039 0)
(1.04752 0.119941 0)
(1.10254 0.161582 0)
(1.08707 0.148022 0)
(1.10576 0.152546 0)
(1.10968 0.151566 0)
(1.09566 0.135771 0)
(1.11553 0.143415 0)
(1.07575 0.112875 0)
(1.11323 0.125883 0)
(1.05083 0.0875019 0)
(1.1011 0.104243 0)
(1.02498 0.0632528 0)
(1.08494 0.0819255 0)
(1.00191 0.0430236 0)
(1.06719 0.0605001 0)
(0.983323 0.0277707 0)
(1.05086 0.0424413 0)
(0.969469 0.0167848 0)
(1.03698 0.0280751 0)
(0.959744 0.00922056 0)
(1.0262 0.0174004 0)
(0.953294 0.00411748 0)
(1.01834 0.00982163 0)
(0.949373 0.000614029 0)
(1.01293 0.00447082 0)
(0.947388 -0.00191392 0)
(1.00954 0.000595354 0)
(0.946856 -0.00392442 0)
(1.00778 -0.00237767 0)
(0.94749 -0.00577581 0)
(1.00732 -0.00488438 0)
(0.949149 -0.00766845 0)
(1.00795 -0.00727093 0)
(0.951801 -0.00970916 0)
(1.00959 -0.00973514 0)
(0.955459 -0.0119969 0)
(1.01222 -0.0124065 0)
(0.960193 -0.0145848 0)
(1.01588 -0.0153887 0)
(0.966101 -0.0174804 0)
(1.02068 -0.0187248 0)
(0.973289 -0.0206511 0)
(1.02671 -0.0224069 0)
(0.981852 -0.0240361 0)
(1.03409 -0.0263786 0)
(0.991896 -0.0275738 0)
(1.04291 -0.0305787 4.7675e-34)
(1.00363 -0.0311826 0)
(1.05334 -0.0350501 -4.74951e-34)
(1.01734 -0.0346476 0)
(1.06587 -0.0397444 0)
(1.03331 -0.0375017 0)
(1.08109 -0.044365 0)
(1.05159 -0.0389269 0)
(1.09962 -0.0482098 0)
(1.07158 -0.0377508 0)
(1.12154 -0.0498925 0)
(1.09169 -0.0327762 0)
(1.14562 -0.0474998 0)
(1.10942 -0.0234636 0)
(1.16905 -0.0393535 0)
(1.12157 -0.0106021 0)
(1.18803 -0.0247707 0)
(1.12575 0.00413726 0)
(1.19813 -0.00599894 0)
(1.12132 0.0187494 0)
(1.19799 0.0140411 0)
(1.10898 0.0309828 0)
(1.18773 0.0324102 0)
(1.09074 0.0392028 0)
(1.16916 0.046163 0)
(1.06938 0.0430285 0)
(1.14548 0.0537861 0)
(1.04741 0.0430445 0)
(1.12017 0.0556846 0)
(1.02675 0.0402732 0)
(1.09607 0.0531717 0)
(1.00852 0.0358418 0)
(1.07483 0.0478286 0)
(0.993186 0.0307394 0)
(1.05714 0.0411799 0)
(0.980683 0.0256716 0)
(1.04301 0.0343614 0)
(0.970686 0.0210463 0)
(1.03199 0.0280776 0)
(0.962771 0.0170318 0)
(1.0235 0.0226418 0)
(0.956536 0.013656 0)
(1.01696 0.0180975 0)
(0.951635 0.0108805 0)
(1.01194 0.0143786 0)
(0.947779 0.00863262 0)
(1.00805 0.0113877 0)
(0.944737 0.00682458 0)
(1.00503 0.00900108 0)
(0.942338 0.00537605 0)
(1.00266 0.00709553 0)
(0.940446 0.00422123 0)
(1.0008 0.00557904 0)
(0.938957 0.003305 0)
(0.999344 0.00437586 0)
(0.937785 0.00258143 0)
(0.998197 0.00342501 0)
(0.936863 0.00201209 0)
(0.997295 0.00267647 0)
(0.936139 0.00156506 0)
(0.996584 0.0020877 0)
(0.935572 0.00121482 0)
(0.996024 0.00162495 0)
(0.935128 0.000941283 0)
(0.995586 0.0012624 0)
(0.934781 0.000728319 0)
(0.995242 0.000979344 0)
(0.93451 0.000562876 0)
(0.994972 0.000758955 0)
(0.934299 0.000434468 0)
(0.994761 0.000587457 0)
(0.934134 0.00033487 0)
(0.994596 0.000454117 0)
(0.934006 0.000257674 0)
(0.994467 0.000350444 0)
(0.933907 0.000197924 0)
(0.994367 0.000270001 0)
(0.93383 0.00015174 0)
(0.994289 0.000207627 0)
(0.933771 0.000116103 0)
(0.994228 0.000159397 0)
(0.933725 8.86325e-05 0)
(0.994181 0.00012211 0)
(0.93369 6.74777e-05 0)
(0.994144 9.33305e-05 0)
(0.933662 5.11857e-05 0)
(0.994116 7.10925e-05 0)
(0.933642 3.86333e-05 0)
(0.994095 5.39281e-05 0)
(0.933626 2.89319e-05 0)
(0.994078 4.06496e-05 0)
(0.933614 2.14445e-05 0)
(0.994065 3.03458e-05 0)
(0.933605 1.55478e-05 0)
(0.994056 2.24143e-05 0)
(0.933599 1.10246e-05 0)
(0.994049 1.59896e-05 0)
(0.933594 7.22397e-06 0)
(0.994044 1.13555e-05 0)
(0.99404 6.55109e-06 0)
(1.01976 0.0663445 0)
(1.00419 0.029181 0)
(1.05936 0.112443 0)
(1.02716 0.0803475 0)
(1.09464 0.135634 0)
(1.06387 0.112737 0)
(1.11886 0.14039 0)
(1.09611 0.127352 0)
(1.13334 0.132781 0)
(1.11783 0.128932 0)
(1.13834 0.117647 0)
(1.13296 0.120879 0)
(1.13503 0.0992479 0)
(1.13829 0.107558 0)
(1.12679 0.0795646 0)
(1.13844 0.0901643 0)
(1.11587 0.0603914 0)
(1.1332 0.0714247 0)
(1.1042 0.0433483 0)
(1.12592 0.0541113 0)
(1.09354 0.0292403 0)
(1.11774 0.0387308 0)
(1.08471 0.0183852 0)
(1.11011 0.0262282 0)
(1.07788 0.0104061 0)
(1.10372 0.0166561 0)
(1.07302 0.00459526 0)
(1.09866 0.00933239 0)
(1.06988 0.000239601 0)
(1.09498 0.00373288 0)
(1.06818 -0.00322407 0)
(1.09262 -0.000678446 0)
(1.06772 -0.0062454 0)
(1.09144 -0.00442085 0)
(1.0683 -0.00918507 0)
(1.09128 -0.0078503 0)
(1.06989 -0.0122566 0)
(1.09207 -0.0113241 0)
(1.07249 -0.0155953 0)
(1.09381 -0.0150127 0)
(1.07619 -0.019304 0)
(1.09655 -0.0190808 0)
(1.08106 -0.0234189 0)
(1.10042 -0.0236017 0)
(1.08724 -0.0279149 0)
(1.10556 -0.028584 0)
(1.09484 -0.0327537 4.7675e-34)
(1.11212 -0.0339815 0)
(1.10402 -0.0379673 2.14839e-36)
(1.12028 -0.0397533 4.7675e-34)
(1.11521 -0.0436033 -4.74951e-34)
(1.13023 -0.0462396 -4.74951e-34)
(1.12927 -0.0495486 0)
(1.14336 -0.0538054 0)
(1.14713 -0.0552834 0)
(1.16084 -0.0622286 0)
(1.16952 -0.0594758 0)
(1.18428 -0.0706019 0)
(1.19596 -0.0598817 0)
(1.21416 -0.0763303 0)
(1.22369 -0.0539917 0)
(1.24808 -0.075228 0)
(1.24859 -0.0399947 0)
(1.28077 -0.064254 0)
(1.26589 -0.0192987 0)
(1.30625 -0.0420711 0)
(1.27164 0.00437254 0)
(1.3169 -0.011746 0)
(1.2653 0.0278442 0)
(1.31476 0.020382 0)
(1.24839 0.0476595 0)
(1.30147 0.0493182 0)
(1.22396 0.0608037 0)
(1.27744 0.0705909 0)
(1.19615 0.0665071 0)
(1.24591 0.0815957 0)
(1.1686 0.0658704 0)
(1.21277 0.0832417 0)
(1.1438 0.0607425 0)
(1.18218 0.0779627 0)
(1.12306 0.0531283 0)
(1.15629 0.0685698 0)
(1.1066 0.0447384 0)
(1.13598 0.0576422 0)
(1.09401 0.0367011 0)
(1.12081 0.0469486 0)
(1.08455 0.0296054 0)
(1.10975 0.0375417 0)
(1.07748 0.0236362 0)
(1.10187 0.0297157 0)
(1.07219 0.0187465 0)
(1.09622 0.0233853 0)
(1.06822 0.0148167 0)
(1.09214 0.0183484 0)
(1.0652 0.0116967 0)
(1.08915 0.0144077 0)
(1.06287 0.00922331 0)
(1.08691 0.0113326 0)
(1.06106 0.00725981 0)
(1.08521 0.00890394 0)
(1.05965 0.00570488 0)
(1.0839 0.00698955 0)
(1.05854 0.00447647 0)
(1.08288 0.00548024 0)
(1.05768 0.00350723 0)
(1.08209 0.00429227 0)
(1.05699 0.00274307 0)
(1.08147 0.00336132 0)
(1.05645 0.0021412 0)
(1.08097 0.00262844 0)
(1.05602 0.00166816 0)
(1.08059 0.00205111 0)
(1.05569 0.00129751 0)
(1.08028 0.00159764 0)
(1.05542 0.00100795 0)
(1.08004 0.00124316 0)
(1.05522 0.000782125 0)
(1.07985 0.000966631 0)
(1.05505 0.000606126 0)
(1.0797 0.000750842 0)
(1.05493 0.00046902 0)
(1.07958 0.000582395 0)
(1.05482 0.000362318 0)
(1.07948 0.000450961 0)
(1.05475 0.000279404 0)
(1.07941 0.000348587 0)
(1.05468 0.000215094 0)
(1.07935 0.000268986 0)
(1.05464 0.000165293 0)
(1.07931 0.000207246 0)
(1.0546 0.000126753 0)
(1.07927 0.000159374 0)
(1.05457 9.69291e-05 0)
(1.07924 0.000122274 0)
(1.05455 7.38445e-05 0)
(1.07922 9.34873e-05 0)
(1.05453 5.59708e-05 0)
(1.07921 7.11749e-05 0)
(1.05452 4.2102e-05 0)
(1.07919 5.38445e-05 0)
(1.05451 3.13604e-05 0)
(1.07918 4.03723e-05 0)
(1.0545 2.29021e-05 0)
(1.07918 2.99293e-05 0)
(1.05449 1.63627e-05 0)
(1.07917 2.15331e-05 0)
(1.05449 1.07108e-05 0)
(1.07917 1.53109e-05 0)
(1.07916 8.7424e-06 0)
(1.0104 0.0439175 0)
(1.0023 0.0187805 0)
(1.03604 0.0798069 0)
(1.01536 0.0547033 0)
(1.06664 0.103604 0)
(1.04058 0.0821461 0)
(1.09495 0.115218 0)
(1.06891 0.0990409 0)
(1.11751 0.116434 0)
(1.09384 0.106366 0)
(1.13288 0.110117 0)
(1.11357 0.105509 0)
(1.14171 0.0982016 0)
(1.12761 0.0987311 0)
(1.14465 0.0823679 0)
(1.13671 0.0872213 0)
(1.14311 0.065568 0)
(1.14005 0.0729712 0)
(1.13919 0.0497582 0)
(1.14029 0.0580251 0)
(1.1342 0.0359252 0)
(1.13794 0.0437258 0)
(1.12907 0.0246907 0)
(1.13468 0.0313554 0)
(1.1244 0.0157842 0)
(1.13118 0.0213315 0)
(1.12054 0.00869875 0)
(1.12791 0.0131861 0)
(1.11767 0.00303098 0)
(1.12518 0.00660586 0)
(1.11582 -0.00167261 0)
(1.12322 0.00116753 0)
(1.11495 -0.005829 0)
(1.12203 -0.00354624 0)
(1.11498 -0.00982941 0)
(1.1216 -0.00787706 0)
(1.11589 -0.0139576 0)
(1.12193 -0.0122357 0)
(1.11772 -0.0183834 0)
(1.12305 -0.0168486 0)
(1.1206 -0.0232322 0)
(1.12502 -0.0219564 0)
(1.12469 -0.0285814 0)
(1.12815 -0.0276917 0)
(1.13016 -0.034442 0)
(1.13259 -0.0340551 0)
(1.13718 -0.0407528 0)
(1.13855 -0.041002 0)
(1.14608 -0.0478559 0)
(1.14638 -0.0486557 0)
(1.15789 -0.0564824 0)
(1.15661 -0.0580449 0)
(1.17438 -0.0667829 0)
(1.17136 -0.0702983 0)
(1.19741 -0.0781012 0)
(1.19278 -0.0852514 0)
(1.22861 -0.0882767 0)
(1.22365 -0.10181 0)
(1.26675 -0.0931411 0)
(1.26249 -0.114461 0)
(1.30628 -0.0883076 0)
(1.30267 -0.114758 0)
(1.33996 -0.069057 0)
(1.341 -0.0979364 0)
(1.35864 -0.0351439 0)
(1.35763 -0.0607509 0)
(1.36141 0.00544258 0)
(1.35932 -0.0145228 0)
(1.35217 0.0440972 0)
(1.35438 0.029626 0)
(1.33086 0.0748201 0)
(1.34385 0.0706251 0)
(1.29916 0.0933696 0)
(1.3226 0.102295 0)
(1.26225 0.0993712 0)
(1.29129 0.118505 0)
(1.22596 0.0957105 0)
(1.25399 0.119528 0)
(1.19413 0.0859122 0)
(1.21813 0.109796 0)
(1.16876 0.0731125 0)
(1.18731 0.0939456 0)
(1.14981 0.0598095 0)
(1.16385 0.0765835 0)
(1.13626 0.0476886 0)
(1.14722 0.0604979 0)
(1.12684 0.037525 0)
(1.13591 0.0469634 0)
(1.12041 0.0293591 0)
(1.12849 0.03615 0)
(1.11601 0.0229313 0)
(1.12365 0.0277851 0)
(1.11296 0.0179162 0)
(1.12049 0.0213967 0)
(1.11079 0.0140224 0)
(1.11839 0.0165805 0)
(1.10918 0.0109847 0)
(1.11698 0.0129366 0)
(1.10799 0.00860463 0)
(1.11596 0.0100946 0)
(1.10709 0.00673964 0)
(1.11522 0.00788862 0)
(1.1064 0.00527482 0)
(1.11467 0.00617358 0)
(1.10586 0.00412926 0)
(1.11424 0.00483477 0)
(1.10543 0.00323352 0)
(1.1139 0.00378822 0)
(1.10509 0.00252825 0)
(1.11363 0.00296518 0)
(1.10483 0.00197274 0)
(1.11342 0.00231691 0)
(1.10462 0.0015373 0)
(1.11326 0.00180744 0)
(1.10445 0.00119742 0)
(1.11313 0.00140925 0)
(1.10432 0.000932111 0)
(1.11303 0.0010987 0)
(1.10422 0.000724725 0)
(1.11294 0.000855854 0)
(1.10413 0.000562568 0)
(1.11287 0.000665647 0)
(1.10407 0.000435921 0)
(1.11282 0.000516772 0)
(1.10401 0.000337198 0)
(1.11278 0.000400462 0)
(1.10397 0.000260427 0)
(1.11275 0.00030984 0)
(1.10394 0.000200814 0)
(1.11272 0.000239408 0)
(1.10392 0.000154529 0)
(1.1127 0.000184679 0)
(1.1039 0.000118574 0)
(1.11268 0.000142113 0)
(1.10388 9.06373e-05 0)
(1.11267 0.000108981 0)
(1.10387 6.89282e-05 0)
(1.11266 8.3206e-05 0)
(1.10386 5.20366e-05 0)
(1.11265 6.31383e-05 0)
(1.10385 3.88935e-05 0)
(1.11264 4.7494e-05 0)
(1.10385 2.85337e-05 0)
(1.11264 3.5283e-05 0)
(1.10384 2.04601e-05 0)
(1.11264 2.55245e-05 0)
(1.10384 1.33251e-05 0)
(1.11263 1.80868e-05 0)
(1.11263 1.0196e-05 0)
(1.00588 0.030414 0)
(1.00136 0.0128958 0)
(1.02207 0.0572339 0)
(1.00932 0.0385188 0)
(1.04422 0.0774373 0)
(1.0261 0.0599985 0)
(1.06789 0.0900104 0)
(1.04742 0.0753643 0)
(1.08998 0.0952424 0)
(1.06899 0.0842794 0)
(1.10841 0.0940432 0)
(1.08843 0.0870792 0)
(1.12256 0.0876414 0)
(1.10483 0.0845831 0)
(1.13206 0.0775272 0)
(1.11759 0.0777242 0)
(1.13717 0.0651943 0)
(1.12631 0.0678554 0)
(1.13889 0.051903 0)
(1.13158 0.0563077 0)
(1.13836 0.0391099 0)
(1.1338 0.0442562 0)
(1.1367 0.0280453 0)
(1.13429 0.0330152 0)
(1.13461 0.0188553 0)
(1.13361 0.0234177 0)
(1.13251 0.0111933 0)
(1.13247 0.0152918 0)
(1.13069 0.0048029 0)
(1.13117 0.00842502 0)
(1.12938 -0.00066049 0)
(1.13006 0.00247641 0)
(1.12864 -0.00552347 0)
(1.12923 -0.00280079 0)
(1.12849 -0.0101486 0)
(1.12876 -0.00773476 0)
(1.129 -0.0149125 0)
(1.12879 -0.0127404 0)
(1.13024 -0.0201717 0)
(1.12939 -0.0180954 0)
(1.13243 -0.0261883 0)
(1.1307 -0.0241377 0)
(1.13582 -0.0329618 0)
(1.13308 -0.0310866 0)
(1.14069 -0.0404231 0)
(1.13674 -0.0389222 0)
(1.14732 -0.0487438 0)
(1.14208 -0.0476325 0)
(1.1564 -0.0587355 0)
(1.1495 -0.0577382 0)
(1.16938 -0.0718803 0)
(1.15986 -0.0710264 0)
(1.18898 -0.0892128 0)
(1.17514 -0.0898946 0)
(1.21788 -0.110365 0)
(1.19762 -0.114149 0)
(1.2572 -0.130833 0)
(1.23093 -0.141132 0)
(1.29889 -0.139329 0)
(1.26417 -0.156149 0)
(1.33712 -0.127591 0)
(1.28011 -0.152986 0)
(1.36319 -0.0937674 0)
(1.28179 -0.124006 0)
(1.36043 -0.0435502 0)
(1.23602 -0.0579929 1.0458e-18)
(1.35267 0.00873792 0)
(1.20656 -0.00676134 3.37469e-17)
(1.34854 0.0586074 0)
(1.21131 0.0337499 2.77921e-17)
(1.33564 0.102656 0)
(1.22745 0.083524 -1.90959e-17)
(1.31372 0.131135 0)
(1.24273 0.124223 -1.76463e-20)
(1.28231 0.141192 0)
(1.2571 0.149913 0)
(1.24567 0.135071 0)
(1.24215 0.156166 0)
(1.2106 0.118251 0)
(1.2167 0.144864 0)
(1.18184 0.0973789 0)
(1.18911 0.122707 0)
(1.16088 0.0771177 0)
(1.16613 0.0975488 0)
(1.14659 0.0595877 0)
(1.14978 0.0747795 0)
(1.13735 0.0454229 0)
(1.13921 0.0562112 0)
(1.13156 0.0344379 0)
(1.13279 0.0419394 0)
(1.12801 0.0261223 0)
(1.12904 0.0313333 0)
(1.12584 0.0199427 0)
(1.12693 0.0235604 0)
(1.12452 0.0154074 0)
(1.12576 0.0179027 0)
(1.1237 0.0120029 0)
(1.12517 0.013758 0)
(1.12316 0.00936298 0)
(1.12485 0.0106405 0)
(1.12277 0.00731226 0)
(1.12468 0.00827118 0)
(1.12249 0.00571946 0)
(1.12458 0.00645845 0)
(1.12226 0.00447817 0)
(1.12451 0.0050592 0)
(1.12209 0.00350617 0)
(1.12445 0.00396304 0)
(1.12195 0.00274235 0)
(1.12441 0.00310091 0)
(1.12185 0.00214185 0)
(1.12438 0.00242303 0)
(1.12176 0.00167152 0)
(1.12436 0.00189074 0)
(1.1217 0.00130466 0)
(1.12434 0.00147619 0)
(1.12164 0.00101817 0)
(1.12432 0.00115363 0)
(1.1216 0.000793635 0)
(1.12431 0.000900722 0)
(1.12156 0.00061752 0)
(1.12429 0.000701886 0)
(1.12153 0.000479598 0)
(1.12428 0.000545826 0)
(1.12151 0.000371872 0)
(1.12427 0.000423628 0)
(1.12149 0.000287966 0)
(1.12426 0.000328334 0)
(1.12148 0.000222689 0)
(1.12425 0.000254273 0)
(1.12146 0.000171856 0)
(1.12425 0.000196649 0)
(1.12145 0.000132232 0)
(1.12424 0.000151681 0)
(1.12145 0.000101349 0)
(1.12424 0.000116588 0)
(1.12144 7.7279e-05 0)
(1.12424 8.91993e-05 0)
(1.12144 5.8506e-05 0)
(1.12423 6.78308e-05 0)
(1.12143 4.38285e-05 0)
(1.12423 5.11248e-05 0)
(1.12143 3.22408e-05 0)
(1.12423 3.80175e-05 0)
(1.12143 2.31312e-05 0)
(1.12423 2.75766e-05 0)
(1.12143 1.49467e-05 0)
(1.12423 1.94348e-05 0)
(1.12423 1.07856e-05 0)
(1.00368 0.0216841 0)
(1.0009 0.00921897 0)
(1.01442 0.0416072 0)
(1.0062 0.0277723 0)
(1.0303 0.0578768 0)
(1.01786 0.0441184 0)
(1.04876 0.0694313 0)
(1.03373 0.0569096 0)
(1.06753 0.0758604 0)
(1.05119 0.0655068 0)
(1.08494 0.0773302 0)
(1.06834 0.0696731 0)
(1.09993 0.074412 0)
(1.08412 0.0695912 0)
(1.11186 0.0679389 0)
(1.0977 0.0657895 0)
(1.12063 0.0589553 0)
(1.10859 0.0590875 0)
(1.12647 0.0486808 0)
(1.11674 0.0504705 0)
(1.12971 0.0382173 0)
(1.12228 0.0410128 0)
(1.13109 0.0284331 0)
(1.12564 0.0316418 0)
(1.13141 0.0198696 0)
(1.12742 0.0230921 0)
(1.13112 0.0125328 0)
(1.12821 0.0155876 0)
(1.13053 0.00611642 0)
(1.12834 0.0090153 0)
(1.12988 0.000385925 0)
(1.12813 0.00312778 0)
(1.1293 -0.00491106 0)
(1.1277 -0.00222955 0)
(1.129 -0.0101799 0)
(1.12724 -0.00742855 0)
(1.1291 -0.015745 0)
(1.12694 -0.0128387 0)
(1.12978 -0.0218509 0)
(1.12693 -0.018778 0)
(1.13125 -0.0287881 0)
(1.12742 -0.0256033 0)
(1.13379 -0.0367728 0)
(1.12872 -0.0336333 0)
(1.13785 -0.0458475 0)
(1.13124 -0.0429834 0)
(1.14387 -0.056358 0)
(1.13547 -0.0536502 0)
(1.15239 -0.0697931 0)
(1.14157 -0.066258 8.0732e-33)
(1.16471 -0.0886748 0)
(1.15008 -0.0833405 -8.02679e-33)
(1.18281 -0.114162 0)
(1.16091 -0.107997 0)
(1.20855 -0.144229 0)
(1.17484 -0.13989 0)
(1.23699 -0.165335 0)
(1.18903 -0.169569 0)
(1.24912 -0.163663 0)
(1.1797 -0.168279 3.42629e-17)
(1.21982 -0.135603 0)
(1.08839 -0.110576 0)
(1.16184 -0.0763557 1.0458e-18)
(0.603106 0.515193 0)
(1.0848 -0.0191669 3.47927e-17)
(0.554986 0.355012 1.0458e-18)
(1.0622 0.0125711 6.1539e-17)
(0.528617 0.277997 3.37469e-17)
(1.09476 0.0422653 8.6962e-18)
(0.5363 0.265966 2.77921e-17)
(1.13432 0.0810109 -1.91135e-17)
(0.555633 0.22377 -1.90959e-17)
(1.18386 0.128212 -1.76463e-20)
(1.07063 0.0537869 5.84415e-18)
(1.21583 0.161145 0)
(1.12527 0.117945 7.8069e-18)
(1.21222 0.16469 0)
(1.17006 0.159769 0)
(1.19444 0.148814 0)
(1.17529 0.162648 0)
(1.17292 0.122507 0)
(1.16413 0.14422 0)
(1.15468 0.0949057 0)
(1.15052 0.115793 0)
(1.14216 0.0711379 0)
(1.13915 0.0872979 0)
(1.1345 0.0524872 0)
(1.13178 0.0638695 0)
(1.13016 0.0386082 0)
(1.12777 0.0462827 0)
(1.12789 0.0285626 0)
(1.12589 0.0336073 0)
(1.1268 0.0213485 0)
(1.12523 0.0246496 0)
(1.12636 0.0161253 0)
(1.1252 0.0183394 0)
(1.12628 0.012295 0)
(1.12546 0.0138366 0)
(1.12636 0.00946688 0)
(1.12584 0.0105665 0)
(1.12647 0.00735904 0)
(1.12622 0.00815418 0)
(1.12659 0.00576188 0)
(1.12655 0.00634378 0)
(1.12669 0.00452198 0)
(1.12683 0.00495985 0)
(1.12677 0.00354392 0)
(1.12706 0.00388083 0)
(1.12684 0.00277419 0)
(1.12724 0.00303463 0)
(1.12689 0.00216885 0)
(1.12739 0.00236945 0)
(1.12693 0.00169344 0)
(1.1275 0.00184708 0)
(1.12696 0.00132241 0)
(1.12758 0.00144493 0)
(1.12698 0.00103323 0)
(1.12764 0.00113355 0)
(1.127 0.000806642 0)
(1.12769 0.000886928 0)
(1.12701 0.000628376 0)
(1.12773 0.00069186 0)
(1.12702 0.000488324 0)
(1.12776 0.000538412 0)
(1.12702 0.000378835 0)
(1.12778 0.000418011 0)
(1.12702 0.000293722 0)
(1.1278 0.000324292 0)
(1.12703 0.000227596 0)
(1.12781 0.000251693 0)
(1.12703 0.000176021 0)
(1.12782 0.000195116 0)
(1.12703 0.000135709 0)
(1.12783 0.00015078 0)
(1.12703 0.000104208 0)
(1.12783 0.000116073 0)
(1.12703 7.95971e-05 0)
(1.12783 8.89178e-05 0)
(1.12703 6.03573e-05 0)
(1.12784 6.76683e-05 0)
(1.12703 4.52642e-05 0)
(1.12784 5.10433e-05 0)
(1.12703 3.33341e-05 0)
(1.12784 3.79613e-05 0)
(1.12703 2.38841e-05 0)
(1.12784 2.75678e-05 0)
(1.12703 1.52902e-05 0)
(1.12784 1.93131e-05 0)
(1.12784 1.05194e-05 0)
(1.00255 0.0157087 0)
(1.00065 0.00666516 0)
(1.01021 0.0305045 0)
(1.0045 0.0201202 0)
(1.02197 0.0431611 0)
(1.01314 0.0323581 0)
(1.03644 0.0528826 0)
(1.02532 0.0424365 0)
(1.05211 0.0591637 0)
(1.03952 0.0498346 0)
(1.06763 0.0617614 0)
(1.05437 0.054156 0)
(1.08197 0.060818 0)
(1.06886 0.0552476 0)
(1.09445 0.0568072 0)
(1.08217 0.053313 0)
(1.10469 0.0504789 0)
(1.09372 0.0488509 0)
(1.11256 0.0427218 0)
(1.10319 0.0425958 0)
(1.1182 0.034412 0)
(1.11051 0.0353751 0)
(1.12192 0.026299 0)
(1.11581 0.0279237 0)
(1.12419 0.0188365 0)
(1.11941 0.020822 0)
(1.12543 0.0121532 0)
(1.12169 0.0143403 0)
(1.12595 0.00616179 0)
(1.12298 0.00849681 0)
(1.12594 0.000668058 0)
(1.1235 0.00314506 0)
(1.12561 -0.00459417 0)
(1.12344 -0.00190436 0)
(1.12516 -0.00995038 0)
(1.12296 -0.00698071 0)
(1.12473 -0.0157448 0)
(1.12222 -0.0124071 0)
(1.12452 -0.0223683 0)
(1.12137 -0.0185669 0)
(1.12482 -0.0302019 0)
(1.12062 -0.0259013 0)
(1.12601 -0.039505 0)
(1.12029 -0.0348277 0)
(1.12862 -0.0503398 0)
(1.12086 -0.0455931 0)
(1.13289 -0.0629718 8.0732e-33)
(1.12268 -0.0579215 0)
(1.13863 -0.0790551 5.65863e-35)
(1.12534 -0.0719971 8.0732e-33)
(1.14566 -0.101678 -8.02679e-33)
(1.12866 -0.0903615 -8.02679e-33)
(1.15286 -0.131125 0)
(1.12733 -0.115196 0)
(1.15555 -0.158804 0)
(1.11902 -0.142583 0)
(1.14462 -0.158924 3.42629e-17)
(1.10251 -0.158638 4.16011e-17)
(1.11547 -0.0973258 3.42629e-17)
(1.03089 -0.117721 3.42629e-17)
(1.19118 -0.0236093 0)
(0.467679 0.253319 0)
(0.476294 0 0)
(0 0.00144154 0)
(0.307777 0 0)
(0 -0.00231788 0)
(0.322118 0 0)
(0 0.00614794 0)
(0.40644 0 0)
(0 0.0131557 0)
(0.587575 0.00966584 5.8618e-18)
(0 0.0282691 0)
(1.02411 0.0453874 1.36687e-17)
(0.49181 0.111166 5.8618e-18)
(1.07663 0.108506 7.8069e-18)
(0.994981 0.0371932 9.36784e-18)
(1.13017 0.154204 0)
(1.0597 0.106232 2.43112e-17)
(1.14378 0.156743 0)
(1.10542 0.149037 0)
(1.14179 0.136644 0)
(1.1168 0.146216 0)
(1.13471 0.107426 0)
(1.11977 0.122873 0)
(1.12858 0.0795039 0)
(1.11906 0.0934285 0)
(1.12501 0.0572862 0)
(1.11823 0.0674383 0)
(1.12348 0.0409947 0)
(1.11843 0.0478098 0)
(1.12322 0.0294913 0)
(1.1194 0.0338656 0)
(1.12362 0.0214941 0)
(1.1207 0.0242543 0)
(1.12429 0.0159248 0)
(1.12206 0.017668 0)
(1.12502 0.0119918 0)
(1.12331 0.0131037 0)
(1.1257 0.00915419 0)
(1.12441 0.00988265 0)
(1.1263 0.00706008 0)
(1.12532 0.00755893 0)
(1.1268 0.00548372 0)
(1.12608 0.00584398 0)
(1.12721 0.00427742 0)
(1.12669 0.00454986 0)
(1.12754 0.00334075 0)
(1.12717 0.00355417 0)
(1.12779 0.00260562 0)
(1.12755 0.0027771 0)
(1.128 0.00202976 0)
(1.12785 0.00216842 0)
(1.12815 0.00158723 0)
(1.12808 0.00169464 0)
(1.12826 0.00124932 0)
(1.12826 0.00132974 0)
(1.12835 0.000982501 0)
(1.1284 0.00104409 0)
(1.12842 0.000768542 0)
(1.12851 0.00081623 0)
(1.12848 0.000599684 0)
(1.12859 0.000636517 0)
(1.12852 0.000466985 0)
(1.12866 0.000495143 0)
(1.12856 0.00036267 0)
(1.12871 0.000383869 0)
(1.12858 0.000281335 0)
(1.12875 0.000298264 0)
(1.1286 0.000218318 0)
(1.12878 0.000232541 0)
(1.12862 0.00016919 0)
(1.12881 0.000180735 0)
(1.12863 0.000130618 0)
(1.12882 0.000139809 0)
(1.12864 0.000100343 0)
(1.12884 0.000107679 0)
(1.12864 7.66297e-05 0)
(1.12885 8.24824e-05 0)
(1.12865 5.80901e-05 0)
(1.12886 6.27185e-05 0)
(1.12865 4.35576e-05 0)
(1.12886 4.73127e-05 0)
(1.12865 3.20696e-05 0)
(1.12887 3.51807e-05 0)
(1.12866 2.29182e-05 0)
(1.12887 2.55406e-05 0)
(1.12866 1.45065e-05 0)
(1.12887 1.77455e-05 0)
(1.12887 9.44007e-06 0)
(1.00193 0.0113182 0)
(1.00051 0.00473499 0)
(1.00775 0.022137 0)
(1.00351 0.0142973 0)
(1.01693 0.0316783 0)
(1.01032 0.023178 0)
(1.02863 0.0393527 0)
(1.02016 0.0307413 0)
(1.04189 0.0447496 0)
(1.03202 0.0365714 0)
(1.0557 0.0475482 0)
(1.04503 0.0403436 0)
(1.06914 0.047646 0)
(1.05831 0.041814 0)
(1.08149 0.0452642 0)
(1.07108 0.0409658 0)
(1.09225 0.0408968 0)
(1.08271 0.0380871 0)
(1.10115 0.0352023 0)
(1.09277 0.0336946 0)
(1.10813 0.0288591 0)
(1.10103 0.0283974 0)
(1.11329 0.0224458 0)
(1.10748 0.0227579 0)
(1.1169 0.0163457 0)
(1.11224 0.0172139 0)
(1.11924 0.0107139 0)
(1.11553 0.0120048 0)
(1.12055 0.00552676 0)
(1.1176 0.00718722 0)
(1.12101 0.00064127 0)
(1.11863 0.00268722 0)
(1.12079 -0.00419548 0)
(1.11878 -0.00168647 0)
(1.12004 -0.00929604 0)
(1.11814 -0.00623193 0)
(1.11888 -0.0150231 0)
(1.11681 -0.0112464 0)
(1.11748 -0.0218284 0)
(1.11487 -0.0171636 0)
(1.11608 -0.0301924 0)
(1.11245 -0.0245098 0)
(1.11507 -0.0404874 0)
(1.10972 -0.0338086 0)
(1.1148 -0.0525873 0)
(1.10704 -0.0453316 0)
(1.1151 -0.0661231 0)
(1.10431 -0.0582158 0)
(1.1149 -0.0819745 0)
(1.1012 -0.071793 1.0677e-33)
(1.11166 -0.10141 0)
(1.09723 -0.087123 -1.06674e-33)
(1.09801 -0.124846 0)
(1.07973 -0.101551 0)
(1.07464 -0.136891 4.16011e-17)
(1.03535 -0.119206 1.07997e-17)
(1.05291 -0.0818181 4.16011e-17)