# vtk DataFile Version 2.0
"/home/user/Desktop/IB/immersedBoundary/movingCylinderInChannelIcokEpsilon/VTK/normalsibCylinder_live_30".vtk
ASCII
DATASET POLYDATA
POINTS 46 float
0.390496 -0.224721 -1.59637e-17 0.42 -0.236054 0 0.46 -0.245719 0 0.5 -0.248689 
0 0.54 -0.245387 -1.39378e-18 0.58 -0.23519 0 0.608242 -0.224106 0 
0.342824 -0.193648 0 0.370496 -0.213648 1.26575e-17 0.628242 -0.212823 0 0.655854 
-0.192823 -1.38465e-17 0.306187 -0.157189 0 0.675854 -0.175836 8.88931e-17 0.692594 -0.155836 
-2.65132e-17 0.27496 -0.11021 3.22366e-17 0.286187 -0.13021 -2.92553e-17 0.712594 -0.127627 -3.62229e-17 
0.723788 -0.107627 1.06098e-16 0.263162 -0.08 2.67487e-18 0.734348 -0.08 -5.34855e-18 0.253231 
-0.04 -1.39429e-18 0.744279 -0.04 2.7889e-18 0.250059 0 0 0.747436 0 
0 0.253231 0.04 1.39429e-18 0.744279 0.04 -2.7889e-18 0.263162 0.08 -2.67487e-18 
0.734348 0.08 5.34855e-18 0.27496 0.11021 -3.22366e-17 0.286187 0.13021 2.92553e-17 0.712594 
0.127627 3.62229e-17 0.723788 0.107627 -1.06098e-16 0.306187 0.157189 3.84123e-18 0.675854 0.175836 
-8.88931e-17 0.692594 0.155836 2.65132e-17 0.342824 0.193648 3.86099e-18 0.370496 0.213648 3.45204e-18 
0.628242 0.212823 6.14896e-18 0.655854 0.192823 8.30792e-18 0.390496 0.224721 0 0.42 
0.236054 0 0.46 0.245719 0 0.5 0.248689 0 0.54 0.245387 
0 0.58 0.23519 2.66586e-18 0.608242 0.224106 -4.59932e-18 
POINT_DATA 46
FIELD attributes 1
normals 3 46 float
0.000755389 0.00152063 -2.59788e-19 0.0010579 0.0032 0 0.000488403 0.0032 0 -1.31363e-05 0.0032 
-5.55171e-19 -0.000515131 0.0032 -5.62159e-19 -0.0011164 0.0032 0 -0.000657023 0.00131871 -6.77626e-21 
0.00218364 0.0027482 0 0.00101636 0.00167937 -3.52493e-19 -0.00114826 0.00188129 -1.35525e-20 -0.00205174 
0.00253666 -1.41657e-18 0.00275017 0.00221011 -2.71051e-20 -0.000666249 0.000663337 -9.22079e-19 -0.00253375 0.00201508 
-3.15029e-18 0.00163356 0.000806416 6.33239e-19 0.00156644 0.000989894 7.72615e-19 -0.0019797 0.00118492 4.82076e-19 
-0.0012203 0.000606071 1.79435e-18 0.0032 0.00108128 1.09721e-18 -0.0032 0.0010836 2.22153e-18 0.0032 
0.000507625 1.09721e-18 -0.0032 0.000505245 2.23508e-18 0.0032 0 0 -0.0032 0 
0 0.0032 -0.000507625 -1.09721e-18 -0.0032 -0.000505245 -2.23508e-18 0.0032 -0.00108128 -1.09721e-18 
-0.0032 -0.0010836 -2.22153e-18 0.00163356 -0.000806416 -6.33239e-19 0.00156644 -0.000989894 -7.72615e-19 -0.0019797 
-0.00118492 -4.82076e-19 -0.0012203 -0.000606071 -1.79096e-18 0.00275017 -0.00221011 4.08537e-19 -0.000666249 -0.000663337 
9.22079e-19 -0.00253375 -0.00201508 3.15029e-18 0.00218364 -0.0027482 2.75959e-19 0.00101636 -0.00167937 -2.9474e-19 
-0.00114826 -0.00188129 -6.3806e-19 -0.00205174 -0.00253666 5.42848e-19 0.000755389 -0.00152063 -6.77626e-21 0.0010579 
-0.0032 2.71051e-20 0.000488403 -0.0032 0 -1.31363e-05 -0.0032 5.55171e-19 -0.000515131 -0.0032 
1.12432e-18 -0.0011164 -0.0032 1.54074e-33 -0.000657023 -0.00131871 -2.228e-19 
