# vtk DataFile Version 2.0
"/home/user/Desktop/IB/immersedBoundary/movingCylinderInChannelIcokEpsilon/VTK/normalsibCylinder_live_50".vtk
ASCII
DATASET POLYDATA
POINTS 48 float
0.190743 -0.224601 2.73116e-18 0.22 -0.235878 -2.67822e-18 0.26 -0.245646 0 0.3 -0.248689 
0 0.34 -0.245452 -1.39413e-18 0.38 -0.235359 0 0.408488 -0.224226 0 
0.143068 -0.193474 0 0.170743 -0.213474 0 0.428488 -0.212928 0 0.456125 
-0.192928 0 0.106426 -0.15694 -2.60131e-18 0.123068 -0.17694 0 0.476125 -0.176114 
-1.15765e-17 0.492831 -0.156114 1.50776e-17 0.0752041 -0.109628 -5.24969e-18 0.0864257 -0.129628 4.62826e-18 
0.512831 -0.128113 -4.77992e-17 0.524032 -0.108113 5.53149e-17 0.0636479 -0.08 0 0.534834 
-0.08 0 0.0537173 -0.04 0 0.544764 -0.04 0 0.0505471 0 
0 0.547925 0 0 0.0537173 0.04 0 0.544764 0.04 0 
0.0636479 0.08 0 0.534834 0.08 0 0.0752041 0.109628 5.24969e-18 0.0864257 
0.129628 -4.62826e-18 0.512831 0.128113 4.77992e-17 0.524032 0.108113 -5.53149e-17 0.106426 0.15694 
2.60131e-18 0.123068 0.17694 0 0.476125 0.176114 1.15765e-17 0.492831 0.156114 -1.50776e-17 
0.143068 0.193474 2.60959e-18 0.170743 0.213474 -1.68471e-17 0.428488 0.212928 0 0.456125 
0.192928 0 0.190743 0.224601 2.45804e-17 0.22 0.235878 -2.67822e-18 0.26 0.245646 
0 0.3 0.248689 0 0.34 0.245452 1.39413e-18 0.38 0.235359 2.66882e-18 
0.408488 0.224226 -3.72223e-18 
POINT_DATA 48
FIELD attributes 1
normals 3 48 float
0.000736223 0.00148118 2.50445e-19 0.001068 0.0032 5.48606e-19 0.000494905 0.0032 0 -8.0121e-06 0.0032 
-5.55171e-19 -0.000509918 0.0032 -5.62159e-19 -0.00110497 0.0032 0 -0.000676227 0.00135802 6.77626e-21 
0.00215588 0.00270911 0 0.00104412 0.00171882 0 -0.00113149 0.00184198 1.35525e-20 -0.00206851 
0.00257998 0 0.00271042 0.00217188 -2.25966e-19 0.000489575 0.000490886 0 -0.000621683 0.000620023 
1.07989e-19 -0.00257832 0.00205294 2.12969e-18 0.00154053 0.000767336 -6.71592e-20 0.00165947 0.00102812 -2.24976e-19 
-0.00190185 0.00114706 2.51717e-18 -0.00129815 0.000645142 6.6778e-19 0.0032 0.00108167 2.71051e-20 -0.0032 
0.00108309 0 0.0032 0.000507228 1.37152e-19 -0.0032 0.000505776 1.35525e-20 0.0032 0 
0 -0.0032 0 0 0.0032 -0.000507228 -1.37152e-19 -0.0032 -0.000505776 -1.35525e-20 
0.0032 -0.00108167 -2.71051e-20 -0.0032 -0.00108309 0 0.00154053 -0.000767336 6.71592e-20 0.00165947 
-0.00102812 2.24976e-19 -0.00190185 -0.00114706 -2.51717e-18 -0.00129815 -0.000645142 -6.74556e-19 0.00271042 -0.00217188 
2.25966e-19 0.000489575 -0.000490886 0 -0.000621683 -0.000620023 -1.07989e-19 -0.00257832 -0.00205294 -2.12969e-18 
0.00215588 -0.00270911 4.78924e-19 0.00104412 -0.00171882 6.69023e-19 -0.00113149 -0.00184198 -1.35525e-20 -0.00206851 
-0.00257998 0 0.000736223 -0.00148118 7.70905e-19 0.001068 -0.0032 1.09721e-18 0.000494905 -0.0032 
0 -8.0121e-06 -0.0032 5.55171e-19 -0.000509918 -0.0032 5.62159e-19 -0.00110497 -0.0032 -5.48606e-19 
-0.000676227 -0.00135802 -2.32986e-19 
