# vtk DataFile Version 2.0
"/home/user/Desktop/IB/immersedBoundary/movingCylinderInChannelIcokEpsilon/VTK/normalsibCylinder_live_45".vtk
ASCII
DATASET POLYDATA
POINTS 42 float
0.275642 -0.222189 0 0.3 -0.23217 0 0.34 -0.244028 0 0.38 -0.248688 
0 0.42 -0.246748 -1.40053e-18 0.46 -0.238391 0 0.493453 -0.226284 -2.28189e-17 
0.227994 -0.190223 0 0.255642 -0.210223 0 0.513453 -0.216261 4.86804e-17 0.54 
-0.197198 -2.24122e-18 0.191277 -0.151398 0 0.207994 -0.171398 0 0.578818 -0.16 
1.84205e-17 0.171377 -0.12 0 0.608933 -0.116648 3.58666e-17 0.15331 -0.0797283 1.08428e-17 
0.624612 -0.08 -1.20392e-17 0.143484 -0.04 -1.39468e-18 0.634541 -0.04 4.18248e-18 0.140348 
0 0 0.637726 0 0 0.143484 0.04 1.39468e-18 0.634541 0.04 
-4.18248e-18 0.15331 0.0797283 -1.08428e-17 0.624612 0.08 1.20392e-17 0.171377 0.12 0 
0.608933 0.116648 -3.58666e-17 0.191277 0.151398 0 0.207994 0.171398 6.01085e-18 0.578818 
0.16 -2.81725e-17 0.227994 0.190223 -4.47644e-18 0.255642 0.210223 -8.4183e-18 0.513453 0.216261 
4.86804e-17 0.54 0.197198 -1.12061e-17 0.275642 0.222189 4.34259e-17 0.3 0.23217 -2.63079e-18 
0.34 0.244028 0 0.38 0.248688 0 0.42 0.246748 1.40053e-18 0.46 
0.238391 0 0.493453 0.226284 -1.99666e-17 
POINT_DATA 42
FIELD attributes 1
normals 3 42 float
0.000350175 0.000697213 0 0.00124688 0.0032 -2.71051e-20 0.000650455 0.0032 5.35054e-19 9.50027e-05 0.0032 
0 -0.000405352 0.0032 -5.55383e-19 -0.000931722 0.0032 0 -0.00100543 0.00215241 -7.01196e-19 
0.00163565 0.0019209 0 0.00156435 0.00250279 0 -0.000598282 0.00104759 -5.99978e-19 -0.00245181 
0.0032 -5.48606e-19 0.00182372 0.00139576 -1.35525e-20 0.00137628 0.0012791 0 -0.0032 0.0026724 
4.49727e-18 0.0032 0.00178812 0 -0.00266362 0.0014293 3.34847e-18 0.00315653 0.00107042 4.48952e-19 
-0.0032 0.00107925 0 0.0032 0.000501767 -5.75711e-19 -0.0032 0.000509498 -2.20798e-18 0.0032 
0 0 -0.0032 0 0 0.0032 -0.000501767 5.75711e-19 -0.0032 -0.000509498 
2.20798e-18 0.00315653 -0.00107042 -4.48952e-19 -0.0032 -0.00107925 0 0.0032 -0.00178812 0 
-0.00266362 -0.0014293 -3.32137e-18 0.00182372 -0.00139576 0 0.00137628 -0.0012791 -2.54899e-19 -0.0032 
-0.0026724 -2.24864e-18 0.00163565 -0.0019209 -2.77395e-19 0.00156435 -0.00250279 5.42422e-19 -0.000598282 -0.00104759 
-5.9659e-19 -0.00245181 -0.0032 1.70003e-18 0.000350175 -0.000697213 2.41498e-19 0.00124688 -0.0032 5.75711e-19 
0.000650455 -0.0032 -5.48606e-19 9.50027e-05 -0.0032 0 -0.000405352 -0.0032 5.55383e-19 -0.000931722 
-0.0032 5.62159e-19 -0.00100543 -0.00215241 -3.24768e-19 
