/*--------------------------------*- C++ -*----------------------------------*\
| =========                 |                                                 |
| \\      /  F ield         | OpenFOAM: The Open Source CFD Toolbox           |
|  \\    /   O peration     | Version:  2206                                  |
|   \\  /    A nd           | Website:  www.openfoam.com                      |
|    \\/     M anipulation  |                                                 |
\*---------------------------------------------------------------------------*/
FoamFile
{
    version     2.0;
    format      ascii;
    arch        "LSB;label=32;scalar=64";
    class       volScalarField;
    location    "0.7";
    object      k;
}
// * * * * * * * * * * * * * * * * * * * * * * * * * * * * * * * * * * * * * //

dimensions      [0 2 -2 0 0 0 0];

internalField   nonuniform List<scalar> 
1875
(
8.55202e-05
5.31668e-05
3.76515e-05
2.91244e-05
2.39684e-05
2.07991e-05
1.88985e-05
1.78591e-05
1.74198e-05
1.73832e-05
1.75917e-05
1.79258e-05
1.83055e-05
1.86871e-05
1.90538e-05
1.94075e-05
1.97562e-05
2.01237e-05
2.05371e-05
2.10275e-05
2.16309e-05
2.23915e-05
2.33659e-05
2.46294e-05
2.62838e-05
2.84666e-05
3.13629e-05
3.52177e-05
4.03434e-05
4.71146e-05
5.59351e-05
6.71693e-05
8.10509e-05
9.76196e-05
0.000116761
0.00013799
0.000158934
0.000173653
0.000180166
0.000176082
0.000161649
0.000139702
0.000114422
9.00006e-05
6.92706e-05
5.33395e-05
4.17632e-05
3.39419e-05
2.87598e-05
2.53828e-05
2.32055e-05
2.18004e-05
2.09005e-05
2.03294e-05
1.99616e-05
1.97201e-05
1.95707e-05
1.94825e-05
1.94337e-05
1.94103e-05
1.94026e-05
1.94043e-05
1.9411e-05
1.94203e-05
1.94303e-05
1.94401e-05
1.94492e-05
1.94573e-05
1.94642e-05
1.94701e-05
1.9475e-05
1.9479e-05
1.94823e-05
1.94852e-05
1.94874e-05
8.51359e-05
5.37129e-05
3.78158e-05
2.87409e-05
2.32147e-05
1.96407e-05
1.73191e-05
1.58573e-05
1.50103e-05
1.4608e-05
1.45178e-05
1.46312e-05
1.48619e-05
1.51475e-05
1.5448e-05
1.57424e-05
1.6012e-05
1.62538e-05
1.64797e-05
1.67023e-05
1.69356e-05
1.71946e-05
1.74964e-05
1.78615e-05
1.83144e-05
1.88857e-05
1.96129e-05
2.05404e-05
2.17174e-05
2.31919e-05
2.5001e-05
2.71644e-05
2.97056e-05
3.27052e-05
3.63571e-05
4.09627e-05
4.67842e-05
5.44339e-05
6.21016e-05
6.84318e-05
7.19958e-05
7.19383e-05
6.82249e-05
6.16073e-05
5.33621e-05
4.48588e-05
3.71981e-05
3.09721e-05
2.63077e-05
2.30083e-05
2.07682e-05
1.92896e-05
1.83304e-05
1.77166e-05
1.73242e-05
1.70709e-05
1.69068e-05
1.68004e-05
1.67312e-05
1.66868e-05
1.66584e-05
1.66406e-05
1.66295e-05
1.6623e-05
1.66194e-05
1.66176e-05
1.6617e-05
1.66171e-05
1.66176e-05
1.66183e-05
1.66191e-05
1.662e-05
1.66209e-05
1.66219e-05
1.66227e-05
8.50295e-05
5.35898e-05
3.78393e-05
2.87111e-05
2.29273e-05
1.90572e-05
1.63985e-05
1.45452e-05
1.32696e-05
1.24261e-05
1.19093e-05
1.16373e-05
1.15424e-05
1.15685e-05
1.16704e-05
1.18143e-05
1.19784e-05
1.2132e-05
1.22659e-05
1.23761e-05
1.24622e-05
1.25259e-05
1.25708e-05
1.26026e-05
1.26276e-05
1.26542e-05
1.26906e-05
1.27431e-05
1.28102e-05
1.28738e-05
1.28894e-05
1.27952e-05
1.25598e-05
1.22468e-05
1.20272e-05
1.21032e-05
1.26977e-05
1.43229e-05
1.7191e-05
2.09442e-05
2.49144e-05
2.83275e-05
3.05406e-05
3.11977e-05
3.03082e-05
2.82124e-05
2.54374e-05
2.25169e-05
1.98645e-05
1.77048e-05
1.60901e-05
1.49636e-05
1.42218e-05
1.37575e-05
1.34806e-05
1.3323e-05
1.32387e-05
1.31983e-05
1.3178e-05
1.31682e-05
1.3163e-05
1.31602e-05
1.31587e-05
1.31575e-05
1.31563e-05
1.31551e-05
1.3154e-05
1.3153e-05
1.31522e-05
1.31515e-05
1.3151e-05
1.31507e-05
1.31506e-05
1.31506e-05
1.31505e-05
8.49813e-05
5.33319e-05
3.75726e-05
2.85026e-05
2.2734e-05
1.88088e-05
1.6016e-05
1.39734e-05
1.24656e-05
1.13582e-05
1.05538e-05
9.98833e-06
9.61171e-06
9.3824e-06
9.26468e-06
9.22813e-06
9.24912e-06
9.30745e-06
9.37984e-06
9.45127e-06
9.51118e-06
9.55286e-06
9.57242e-06
9.5692e-06
9.54424e-06
9.49955e-06
9.43458e-06
9.34202e-06
9.19864e-06
8.95082e-06
8.50918e-06
7.79021e-06
6.81244e-06
5.73963e-06
4.78916e-06
4.0814e-06
3.67979e-06
3.64255e-06
4.28229e-06
5.62388e-06
7.54364e-06
9.77962e-06
1.19669e-05
1.37312e-05
1.48106e-05
1.51307e-05
1.4797e-05
1.40225e-05
1.30502e-05
1.20927e-05
1.12884e-05
1.06956e-05
1.03128e-05
1.01047e-05
1.00238e-05
1.00253e-05
1.00727e-05
1.01403e-05
1.0213e-05
1.02796e-05
1.03348e-05
1.03777e-05
1.04097e-05
1.04328e-05
1.0449e-05
1.04598e-05
1.04668e-05
1.04712e-05
1.04738e-05
1.04754e-05
1.04762e-05
1.04766e-05
1.04767e-05
1.04767e-05
1.04763e-05
8.49613e-05
5.31739e-05
3.73088e-05
2.82207e-05
2.24734e-05
1.85669e-05
1.57692e-05
1.36912e-05
1.21119e-05
1.08978e-05
9.96219e-06
9.24917e-06
8.71878e-06
8.3388e-06
8.08041e-06
7.92028e-06
7.83761e-06
7.81759e-06
7.84031e-06
7.88837e-06
7.94711e-06
8.00494e-06
8.05285e-06
8.08455e-06
8.09697e-06
8.08386e-06
8.03453e-06
7.92595e-06
7.7078e-06
7.28279e-06
6.52375e-06
5.38484e-06
4.04457e-06
2.80545e-06
1.882e-06
1.26206e-06
8.98161e-07
7.44957e-07
8.35397e-07
1.22852e-06
1.95659e-06
3.00717e-06
4.27718e-06
5.5825e-06
6.71801e-06
7.53691e-06
7.98747e-06
8.10481e-06
7.98768e-06
7.75986e-06
7.53044e-06
7.37027e-06
7.30997e-06
7.34865e-06
7.46636e-06
7.63535e-06
7.82829e-06
8.02293e-06
8.20389e-06
8.36234e-06
8.49519e-06
8.60123e-06
8.6827e-06
8.74351e-06
8.78766e-06
8.819e-06
8.84069e-06
8.85537e-06
8.86509e-06
8.87139e-06
8.8754e-06
8.87789e-06
8.87938e-06
8.88012e-06
8.87963e-06
8.49527e-05
5.30933e-05
3.71391e-05
2.79956e-05
2.22298e-05
1.83273e-05
1.55405e-05
1.3469e-05
1.18844e-05
1.06499e-05
9.68049e-06
8.92087e-06
8.33358e-06
7.89088e-06
7.57006e-06
7.35212e-06
7.21991e-06
7.159e-06
7.15429e-06
7.18985e-06
7.25085e-06
7.32369e-06
7.39487e-06
7.45636e-06
7.49756e-06
7.50487e-06
7.45573e-06
7.30677e-06
6.97086e-06
6.2981e-06
5.15397e-06
3.63975e-06
2.1857e-06
1.11903e-06
5.20175e-07
2.13052e-07
8.27937e-08
4.39165e-08
6.45035e-08
1.64442e-07
3.9649e-07
8.08588e-07
1.40779e-06
2.14913e-06
2.91698e-06
3.61301e-06
4.1617e-06
4.5314e-06
4.74558e-06
4.86157e-06
4.94535e-06
5.05085e-06
5.20956e-06
5.4303e-06
5.70451e-06
6.01341e-06
6.33464e-06
6.64752e-06
6.93598e-06
7.18972e-06
7.40406e-06
7.57896e-06
7.71713e-06
7.82282e-06
7.90163e-06
7.95899e-06
7.99982e-06
8.0283e-06
8.04778e-06
8.06085e-06
8.06948e-06
8.07508e-06
8.07861e-06
8.0806e-06
8.08042e-06
8.49487e-05
5.30532e-05
3.70443e-05
2.78528e-05
2.20554e-05
1.81375e-05
1.53476e-05
1.32798e-05
1.17009e-05
1.04703e-05
9.50091e-06
8.73653e-06
8.13965e-06
7.68353e-06
7.34812e-06
7.11605e-06
6.97161e-06
6.90045e-06
6.88859e-06
6.92147e-06
6.98466e-06
7.06374e-06
7.14543e-06
7.2195e-06
7.26758e-06
7.26835e-06
7.18609e-06
6.95261e-06
6.43443e-06
5.43121e-06
3.87518e-06
2.16317e-06
9.10487e-07
2.57141e-07
5.70141e-08
8.82152e-09
1.58747e-09
6.78733e-10
1.95726e-09
1.00486e-08
4.59679e-08
1.70472e-07
4.23059e-07
7.98959e-07
1.24843e-06
1.7178e-06
2.1552e-06
2.52171e-06
2.8132e-06
3.05227e-06
3.27445e-06
3.51451e-06
3.79625e-06
4.12819e-06
4.50512e-06
4.91206e-06
5.32908e-06
5.73581e-06
6.11486e-06
6.45363e-06
6.74507e-06
6.98729e-06
7.18228e-06
7.3349e-06
7.45106e-06
7.5373e-06
7.59991e-06
7.64442e-06
7.67544e-06
7.69667e-06
7.71095e-06
7.72039e-06
7.72649e-06
7.73012e-06
7.73068e-06
8.49468e-05
5.30326e-05
3.69923e-05
2.77687e-05
2.19449e-05
1.80084e-05
1.52075e-05
1.31354e-05
1.15572e-05
1.03306e-05
9.36707e-06
8.60907e-06
8.0183e-06
7.56781e-06
7.2372e-06
7.0094e-06
6.86892e-06
6.80123e-06
6.79245e-06
6.82843e-06
6.89499e-06
6.97797e-06
7.06294e-06
7.13407e-06
7.17075e-06
7.14347e-06
7.00243e-06
6.65035e-06
5.90003e-06
4.52242e-06
2.63703e-06
1.02589e-06
2.12406e-07
2.17599e-08
9.69895e-10
0.00015
0.00015
0.00015
0.00015
0.00015
1.5067e-09
1.17207e-08
8.36627e-08
2.60747e-07
5.1245e-07
8.09674e-07
1.12145e-06
1.42057e-06
1.69757e-06
1.9607e-06
2.22901e-06
2.52423e-06
2.86241e-06
3.24966e-06
3.68163e-06
4.14571e-06
4.62362e-06
5.09526e-06
5.54185e-06
5.94837e-06
6.30493e-06
6.60715e-06
6.85516e-06
7.05271e-06
7.20582e-06
7.32149e-06
7.40681e-06
7.46839e-06
7.51194e-06
7.54215e-06
7.56274e-06
7.57653e-06
7.58558e-06
7.59113e-06
7.5927e-06
8.49457e-05
5.30213e-05
3.69626e-05
2.77191e-05
2.18772e-05
1.79261e-05
1.51146e-05
1.30358e-05
1.14546e-05
1.02287e-05
9.2687e-06
8.51659e-06
7.93342e-06
7.49161e-06
7.17009e-06
6.95128e-06
6.81919e-06
6.75882e-06
6.75582e-06
6.79589e-06
6.86465e-06
6.94743e-06
7.02841e-06
7.08893e-06
7.10436e-06
7.03813e-06
6.82603e-06
6.33805e-06
5.32956e-06
3.5882e-06
1.55135e-06
3.16966e-07
2.24041e-08
0.00015
0.00015
0.00015
0.00015
0.00015
0.00015
0.00015
0.00015
2.06561e-10
5.69506e-09
6.04874e-08
1.90414e-07
3.71968e-07
5.85864e-07
8.16144e-07
1.05539e-06
1.30672e-06
1.58047e-06
1.88995e-06
2.24588e-06
2.65251e-06
3.10634e-06
3.59672e-06
4.10726e-06
4.61855e-06
5.11089e-06
5.56749e-06
5.97557e-06
6.32781e-06
6.62201e-06
6.86031e-06
7.0479e-06
7.19172e-06
7.29929e-06
7.37793e-06
7.43421e-06
7.47369e-06
7.50089e-06
7.51928e-06
7.53148e-06
7.53912e-06
7.54191e-06
8.49451e-05
5.30146e-05
3.6945e-05
2.76892e-05
2.18359e-05
1.78749e-05
1.50555e-05
1.2971e-05
1.13865e-05
1.01597e-05
9.20112e-06
8.45263e-06
7.87495e-06
7.44002e-06
7.12619e-06
6.91525e-06
6.79062e-06
6.73672e-06
6.73861e-06
6.78151e-06
6.85058e-06
6.9304e-06
7.00381e-06
7.04993e-06
7.04069e-06
6.93316e-06
6.64868e-06
6.0215e-06
4.75099e-06
2.69619e-06
7.33626e-07
5.58585e-08
5.02403e-10
0.00015
0.00015
0.00015
0.00015
0.00015
0.00015
0.00015
0.00015
0.00015
3.41295e-10
6.94602e-09
5.96344e-08
1.63155e-07
3.06213e-07
4.79855e-07
6.79987e-07
9.08191e-07
1.17037e-06
1.47481e-06
1.82876e-06
2.23553e-06
2.69262e-06
3.19123e-06
3.71679e-06
4.25079e-06
4.77326e-06
5.26559e-06
5.71285e-06
6.10504e-06
6.43767e-06
6.711e-06
6.92903e-06
7.09826e-06
7.22629e-06
7.3209e-06
7.38928e-06
7.43769e-06
7.47132e-06
7.49426e-06
7.50958e-06
7.51934e-06
7.52339e-06
8.49448e-05
5.30107e-05
3.69346e-05
2.76715e-05
2.18112e-05
1.7844e-05
1.50196e-05
1.29312e-05
1.13442e-05
1.01164e-05
9.15826e-06
8.41176e-06
7.83747e-06
7.40705e-06
7.09843e-06
6.89292e-06
6.77347e-06
6.72399e-06
6.72896e-06
6.77311e-06
6.84107e-06
6.91667e-06
6.98163e-06
7.01338e-06
6.98117e-06
6.83675e-06
6.48749e-06
5.73046e-06
4.21436e-06
1.91222e-06
2.43589e-07
6.57666e-09
0.00015
0.00015
0.00015
0.00015
0.00015
0.00015
0.00015
0.00015
0.00015
0.00015
0.00015
7.41709e-10
1.3759e-08
6.70802e-08
1.60337e-07
2.89892e-07
4.5492e-07
6.57301e-07
9.01343e-07
1.19275e-06
1.53698e-06
1.93671e-06
2.39015e-06
2.88982e-06
3.42241e-06
3.9701e-06
4.51272e-06
5.03053e-06
5.5068e-06
5.9295e-06
6.29211e-06
6.59333e-06
6.83611e-06
7.02635e-06
7.17156e-06
7.27975e-06
7.35855e-06
7.41474e-06
7.45404e-06
7.481e-06
7.49914e-06
7.51081e-06
7.51604e-06
8.49446e-05
5.30086e-05
3.69291e-05
2.7662e-05
2.17979e-05
1.78274e-05
1.50001e-05
1.29097e-05
1.13212e-05
1.00927e-05
9.13474e-06
8.3893e-06
7.8169e-06
7.38905e-06
7.08346e-06
6.88114e-06
6.7647e-06
6.71772e-06
6.72423e-06
6.76857e-06
6.83497e-06
6.90674e-06
6.96483e-06
6.9856e-06
6.93653e-06
6.76543e-06
6.36756e-06
5.50438e-06
3.76979e-06
1.27433e-06
5.2494e-08
1.00122e-09
0.00015
0.00015
0.00015
0.00015
0.00015
0.00015
0.00015
0.00015
0.00015
0.00015
0.00015
1.25914e-10
3.34356e-09
2.7037e-08
8.77825e-08
1.85542e-07
3.22986e-07
5.0308e-07
7.30001e-07
1.00865e-06
1.34369e-06
1.73733e-06
2.18776e-06
2.68795e-06
3.22511e-06
3.78165e-06
4.33724e-06
4.87151e-06
5.36666e-06
5.8094e-06
6.19197e-06
6.51199e-06
6.77166e-06
6.97644e-06
7.13371e-06
7.25155e-06
7.33785e-06
7.39972e-06
7.44319e-06
7.47317e-06
7.49342e-06
7.50655e-06
7.5127e-06
8.49445e-05
5.30079e-05
3.69272e-05
2.76589e-05
2.17936e-05
1.78221e-05
1.4994e-05
1.29028e-05
1.13139e-05
1.00852e-05
9.12742e-06
8.38246e-06
7.81087e-06
7.3841e-06
7.07977e-06
6.87874e-06
6.7635e-06
6.7174e-06
6.72432e-06
6.76847e-06
6.83392e-06
6.90378e-06
6.9588e-06
6.97496e-06
6.91913e-06
6.73732e-06
6.31791e-06
5.39514e-06
3.48414e-06
7.99697e-07
7.96796e-09
4.51127e-11
0.00015
0.00015
0.00015
0.00015
0.00015
0.00015
0.00015
0.00015
0.00015
0.00015
0.00015
5.47609e-11
1.64109e-09
1.64921e-08
6.30657e-08
1.47168e-07
2.72397e-07
4.42962e-07
6.63247e-07
9.37753e-07
1.27027e-06
1.66283e-06
2.113e-06
2.61372e-06
3.15229e-06
3.7113e-06
4.27056e-06
4.80972e-06
5.31081e-06
5.76024e-06
6.14984e-06
6.47684e-06
6.74308e-06
6.95377e-06
7.11615e-06
7.23823e-06
7.32793e-06
7.39246e-06
7.43795e-06
7.46942e-06
7.49076e-06
7.50465e-06
7.51128e-06
8.49446e-05
5.30086e-05
3.69291e-05
2.7662e-05
2.17979e-05
1.78274e-05
1.50002e-05
1.29097e-05
1.13214e-05
1.00931e-05
9.13547e-06
8.39051e-06
7.81874e-06
7.39164e-06
7.08688e-06
6.88533e-06
6.76952e-06
6.72285e-06
6.72931e-06
6.77323e-06
6.83886e-06
6.90956e-06
6.96646e-06
6.98614e-06
6.93648e-06
6.76583e-06
6.37067e-06
5.51731e-06
3.81182e-06
1.33267e-06
5.31844e-08
1.02148e-09
0.00015
0.00015
0.00015
0.00015
0.00015
0.00015
0.00015
0.00015
0.00015
0.00015
0.00015
1.23981e-10
3.26995e-09
2.63978e-08
8.61433e-08
1.83452e-07
3.21708e-07
5.04032e-07
7.34159e-07
1.01615e-06
1.35371e-06
1.74831e-06
2.19772e-06
2.69493e-06
3.22756e-06
3.77872e-06
4.32889e-06
4.85843e-06
5.35006e-06
5.79078e-06
6.17277e-06
6.49347e-06
6.75472e-06
6.96164e-06
7.12127e-06
7.24145e-06
7.3299e-06
7.39361e-06
7.43862e-06
7.46981e-06
7.491e-06
7.50481e-06
7.51141e-06
8.49448e-05
5.30107e-05
3.69346e-05
2.76715e-05
2.18112e-05
1.7844e-05
1.50196e-05
1.29314e-05
1.13446e-05
1.01171e-05
9.15966e-06
8.41408e-06
7.84098e-06
7.41198e-06
7.1049e-06
6.90086e-06
6.78259e-06
6.73376e-06
6.73867e-06
6.78201e-06
6.84842e-06
6.92186e-06
6.98432e-06
7.01369e-06
6.97992e-06
6.83573e-06
6.49003e-06
5.74404e-06
4.25488e-06
1.97206e-06
2.46017e-07
6.58225e-09
0.00015
0.00015
0.00015
0.00015
0.00015
0.00015
0.00015
0.00015
0.00015
0.00015
0.00015
7.19442e-10
1.31992e-08
6.44023e-08
1.54991e-07
2.83264e-07
4.49685e-07
6.56311e-07
9.06454e-07
1.20409e-06
1.55282e-06
1.95392e-06
2.40495e-06
2.89859e-06
3.42245e-06
3.96008e-06
4.49283e-06
5.0023e-06
5.47264e-06
5.89222e-06
6.2544e-06
6.55742e-06
6.80359e-06
6.99813e-06
7.14798e-06
7.26066e-06
7.34353e-06
7.40321e-06
7.44536e-06
7.47459e-06
7.49445e-06
7.50739e-06
7.51345e-06
8.49451e-05
5.30146e-05
3.6945e-05
2.76892e-05
2.18359e-05
1.78749e-05
1.50556e-05
1.29713e-05
1.13871e-05
1.01608e-05
9.20315e-06
8.45593e-06
7.87992e-06
7.44698e-06
7.13529e-06
6.92639e-06
6.8034e-06
6.75041e-06
6.75219e-06
6.79391e-06
6.86071e-06
6.93733e-06
7.00696e-06
7.04938e-06
7.03745e-06
6.92955e-06
6.64885e-06
6.03304e-06
4.78662e-06
2.7517e-06
7.41821e-07
5.56768e-08
5.07167e-10
0.00015
0.00015
0.00015
0.00015
0.00015
0.00015
0.00015
0.00015
0.00015
3.2742e-10
6.58689e-09
5.60499e-08
1.53371e-07
2.8979e-07
4.59436e-07
6.60325e-07
8.9423e-07
1.16533e-06
1.47906e-06
1.83974e-06
2.24858e-06
2.7023e-06
3.19255e-06
3.70627e-06
4.22703e-06
4.73697e-06
5.21923e-06
5.6599e-06
6.04934e-06
6.38276e-06
6.65967e-06
6.88319e-06
7.05887e-06
7.19358e-06
7.29449e-06
7.36848e-06
7.42164e-06
7.45912e-06
7.48506e-06
7.50266e-06
7.51409e-06
7.51922e-06
8.49457e-05
5.30213e-05
3.69626e-05
2.77191e-05
2.18772e-05
1.79261e-05
1.51147e-05
1.30361e-05
1.14553e-05
1.02302e-05
9.27128e-06
8.52076e-06
7.93965e-06
7.50026e-06
7.18132e-06
6.96492e-06
6.83473e-06
6.77535e-06
6.77209e-06
6.81054e-06
6.87632e-06
6.95492e-06
7.03096e-06
7.0865e-06
7.09804e-06
7.03054e-06
6.82193e-06
6.34537e-06
5.35971e-06
3.64038e-06
1.5714e-06
3.17529e-07
2.24403e-08
0.00015
0.00015
0.00015
0.00015
0.00015
0.00015
0.00015
0.00015
1.99574e-10
5.37727e-09
5.62657e-08
1.75522e-07
3.41988e-07
5.40866e-07
7.61091e-07
9.98533e-07
1.25646e-06
1.54236e-06
1.86511e-06
2.23112e-06
2.64181e-06
3.09284e-06
3.57445e-06
4.07244e-06
4.57007e-06
5.05016e-06
5.49779e-06
5.90116e-06
6.25305e-06
6.55069e-06
6.79523e-06
6.99076e-06
7.14316e-06
7.25916e-06
7.34553e-06
7.40851e-06
7.45354e-06
7.48517e-06
7.50699e-06
7.52175e-06
7.53125e-06
7.53519e-06
8.49468e-05
5.30326e-05
3.69923e-05
2.77687e-05
2.19449e-05
1.80084e-05
1.52077e-05
1.31359e-05
1.15581e-05
1.03325e-05
9.37021e-06
8.61406e-06
8.02564e-06
7.57785e-06
7.25e-06
7.02468e-06
6.88599e-06
6.819e-06
6.80949e-06
6.8432e-06
6.90595e-06
6.9838e-06
7.06277e-06
7.12781e-06
7.15943e-06
7.12982e-06
6.99146e-06
6.65026e-06
5.92217e-06
4.571e-06
2.67678e-06
1.03608e-06
2.13207e-07
2.19192e-08
9.8541e-10
0.00015
0.00015
0.00015
0.00015
0.00015
1.46873e-09
1.11243e-08
7.78854e-08
2.38887e-07
4.64598e-07
7.30007e-07
1.01194e-06
1.29118e-06
1.56294e-06
1.83487e-06
2.12107e-06
2.43637e-06
2.79082e-06
3.187e-06
3.61983e-06
4.07822e-06
4.54669e-06
5.00827e-06
5.44684e-06
5.84906e-06
6.20572e-06
6.51217e-06
6.7677e-06
6.97489e-06
7.1386e-06
7.26485e-06
7.36002e-06
7.43025e-06
7.48108e-06
7.51719e-06
7.5424e-06
7.5597e-06
7.57134e-06
7.57873e-06
7.58136e-06
8.49487e-05
5.30532e-05
3.70443e-05
2.78528e-05
2.20554e-05
1.81376e-05
1.53478e-05
1.32804e-05
1.17021e-05
1.04726e-05
9.50479e-06
8.74253e-06
8.1482e-06
7.69483e-06
7.36203e-06
7.13201e-06
6.98867e-06
6.91728e-06
6.90365e-06
6.93314e-06
6.99139e-06
7.06428e-06
7.13901e-06
7.20607e-06
7.24816e-06
7.24553e-06
7.16474e-06
6.94074e-06
6.44341e-06
5.46955e-06
3.92551e-06
2.19389e-06
9.19469e-07
2.58434e-07
5.74687e-08
8.91856e-09
1.6022e-09
6.83376e-10
1.95856e-09
9.87943e-09
4.41717e-08
1.60254e-07
3.89711e-07
7.24389e-07
1.11737e-06
1.52553e-06
1.911e-06
2.24713e-06
2.53451e-06
2.79197e-06
3.04571e-06
3.31995e-06
3.63043e-06
3.98173e-06
4.36845e-06
4.77798e-06
5.19382e-06
5.59895e-06
5.97845e-06
6.32102e-06
6.61986e-06
6.87246e-06
7.0798e-06
7.24559e-06
7.37477e-06
7.47309e-06
7.54633e-06
7.5998e-06
7.63813e-06
7.66511e-06
7.6838e-06
7.69653e-06
7.70502e-06
7.7103e-06
7.71161e-06
8.49527e-05
5.30933e-05
3.71391e-05
2.79956e-05
2.22299e-05
1.83274e-05
1.55408e-05
1.34698e-05
1.18861e-05
1.06531e-05
9.68562e-06
8.92847e-06
8.34386e-06
7.9037e-06
7.58483e-06
7.36783e-06
7.23518e-06
7.17224e-06
7.16392e-06
7.19433e-06
7.24887e-06
7.31433e-06
7.37772e-06
7.43162e-06
7.46626e-06
7.46933e-06
7.42026e-06
7.27853e-06
6.96053e-06
6.31672e-06
5.19847e-06
3.68516e-06
2.21278e-06
1.12838e-06
5.21802e-07
2.13971e-07
8.32306e-08
4.40164e-08
6.40356e-08
1.60523e-07
3.78709e-07
7.55131e-07
1.28861e-06
1.93311e-06
2.5883e-06
3.17946e-06
3.65442e-06
3.99556e-06
4.22574e-06
4.38994e-06
4.5368e-06
4.70478e-06
4.91571e-06
5.17501e-06
5.47535e-06
5.80154e-06
6.13537e-06
6.45957e-06
6.76025e-06
7.02796e-06
7.25793e-06
7.4494e-06
7.6042e-06
7.72576e-06
7.81894e-06
7.88879e-06
7.9401e-06
7.97707e-06
8.00323e-06
8.02143e-06
8.03389e-06
8.04228e-06
8.04779e-06
8.05107e-06
8.05117e-06
8.49613e-05
5.31739e-05
3.73088e-05
2.82207e-05
2.24734e-05
1.85671e-05
1.57697e-05
1.36925e-05
1.21146e-05
1.09026e-05
9.96957e-06
9.25943e-06
8.73172e-06
8.35363e-06
8.09584e-06
7.93462e-06
7.84901e-06
7.82426e-06
7.84087e-06
7.88163e-06
7.93232e-06
7.98182e-06
8.02154e-06
8.04559e-06
8.05142e-06
8.03361e-06
7.98293e-06
7.87871e-06
7.67388e-06
7.27344e-06
6.54476e-06
5.42512e-06
4.08306e-06
2.82897e-06
1.89085e-06
1.26373e-06
8.96017e-07
7.39792e-07
8.23806e-07
1.19264e-06
1.85894e-06
2.79458e-06
3.89619e-06
5.00202e-06
5.94743e-06
6.62736e-06
7.0166e-06
7.15345e-06
7.11889e-06
7.00791e-06
6.90158e-06
6.85159e-06
6.87995e-06
6.98539e-06
7.15212e-06
7.35801e-06
7.58068e-06
7.80141e-06
8.00673e-06
8.1885e-06
8.34359e-06
8.47038e-06
8.57063e-06
8.64787e-06
8.70595e-06
8.74874e-06
8.7796e-06
8.80142e-06
8.81657e-06
8.82692e-06
8.83387e-06
8.83846e-06
8.84139e-06
8.84298e-06
8.84216e-06
8.49813e-05
5.33318e-05
3.75726e-05
2.85026e-05
2.2734e-05
1.8809e-05
1.60169e-05
1.39757e-05
1.24701e-05
1.13657e-05
1.05647e-05
1.00023e-05
9.6278e-06
9.39883e-06
9.27929e-06
9.23867e-06
9.25359e-06
9.30445e-06
9.36856e-06
9.43135e-06
9.48274e-06
9.5163e-06
9.52832e-06
9.51818e-06
9.48708e-06
9.43738e-06
9.36944e-06
9.27765e-06
9.14143e-06
8.90999e-06
8.49353e-06
7.79977e-06
6.83463e-06
5.75765e-06
4.79246e-06
4.06824e-06
3.6491e-06
3.58872e-06
4.17889e-06
5.40275e-06
7.11243e-06
9.05265e-06
1.09007e-05
1.23503e-05
1.32085e-05
1.34441e-05
1.31658e-05
1.25549e-05
1.1804e-05
1.10773e-05
1.04794e-05
1.0054e-05
9.79888e-06
9.68528e-06
9.67493e-06
9.73059e-06
9.82172e-06
9.92621e-06
1.00308e-05
1.01253e-05
1.02048e-05
1.02685e-05
1.03178e-05
1.03552e-05
1.03827e-05
1.04024e-05
1.04162e-05
1.04257e-05
1.04321e-05
1.04363e-05
1.0439e-05
1.04407e-05
1.04418e-05
1.04422e-05
1.0441e-05
8.50295e-05
5.35898e-05
3.78392e-05
2.8711e-05
2.29274e-05
1.90576e-05
1.64001e-05
1.4549e-05
1.32767e-05
1.2437e-05
1.19237e-05
1.16538e-05
1.15587e-05
1.1582e-05
1.16789e-05
1.18159e-05
1.19721e-05
1.21179e-05
1.22442e-05
1.23474e-05
1.24272e-05
1.24852e-05
1.25247e-05
1.2551e-05
1.25704e-05
1.25913e-05
1.26223e-05
1.26707e-05
1.27369e-05
1.2805e-05
1.28319e-05
1.27521e-05
1.25244e-05
1.22018e-05
1.19507e-05
1.1973e-05
1.24865e-05
1.39893e-05
1.66436e-05
2.00334e-05
2.35162e-05
2.6401e-05
2.81595e-05
2.85394e-05
2.76054e-05
2.56871e-05
2.32468e-05
2.07288e-05
1.84683e-05
1.66425e-05
1.52886e-05
1.43552e-05
1.3753e-05
1.339e-05
1.3188e-05
1.30877e-05
1.30488e-05
1.30452e-05
1.30549e-05
1.30697e-05
1.30843e-05
1.30974e-05
1.31084e-05
1.31169e-05
1.3123e-05
1.31273e-05
1.31302e-05
1.3132e-05
1.31332e-05
1.31339e-05
1.31344e-05
1.31347e-05
1.3135e-05
1.31352e-05
1.31344e-05
8.51359e-05
5.37129e-05
3.78158e-05
2.87409e-05
2.32149e-05
1.96418e-05
1.7322e-05
1.58631e-05
1.50194e-05
1.46198e-05
1.45303e-05
1.46419e-05
1.48685e-05
1.51484e-05
1.54428e-05
1.57314e-05
1.59963e-05
1.62347e-05
1.64583e-05
1.66794e-05
1.69115e-05
1.71691e-05
1.74691e-05
1.78313e-05
1.82804e-05
1.88468e-05
1.95685e-05
2.04907e-05
2.16641e-05
2.31386e-05
2.49524e-05
2.7124e-05
2.96677e-05
3.2647e-05
3.62338e-05
4.07044e-05
4.62899e-05
5.3616e-05
6.07492e-05
6.64065e-05
6.92803e-05
6.86818e-05
6.47141e-05
5.81785e-05
5.02989e-05
4.23238e-05
3.52252e-05
2.95052e-05
2.52438e-05
2.22434e-05
2.02161e-05
1.88867e-05
1.8033e-05
1.7495e-05
1.71587e-05
1.6948e-05
1.68168e-05
1.67362e-05
1.6687e-05
1.6658e-05
1.66415e-05
1.66326e-05
1.66282e-05
1.66265e-05
1.66264e-05
1.66271e-05
1.66282e-05
1.66294e-05
1.66307e-05
1.66319e-05
1.66331e-05
1.66343e-05
1.66355e-05
1.66368e-05
1.66378e-05
8.55202e-05
5.31669e-05
3.76517e-05
2.9125e-05
2.397e-05
2.08027e-05
1.89047e-05
1.78676e-05
1.74288e-05
1.73903e-05
1.75944e-05
1.79227e-05
1.82965e-05
1.86732e-05
1.9037e-05
1.93899e-05
1.97398e-05
2.01097e-05
2.05265e-05
2.10203e-05
2.16269e-05
2.23901e-05
2.33665e-05
2.46318e-05
2.62882e-05
2.84752e-05
3.13811e-05
3.52566e-05
4.04243e-05
4.7275e-05
5.62369e-05
6.77028e-05
8.19266e-05
9.89377e-05
0.000118565
0.000140217
0.000161352
0.00017579
0.000181601
0.000176523
0.000161046
0.000138256
0.000112499
8.79862e-05
6.74496e-05
5.18501e-05
4.06287e-05
3.31097e-05
2.81615e-05
2.4956e-05
2.29016e-05
2.15848e-05
2.0749e-05
2.02252e-05
1.9893e-05
1.96785e-05
1.95496e-05
1.94769e-05
1.94397e-05
1.94251e-05
1.94239e-05
1.94302e-05
1.94403e-05
1.94519e-05
1.94636e-05
1.94745e-05
1.94843e-05
1.94929e-05
1.95002e-05
1.95063e-05
1.95114e-05
1.95157e-05
1.95197e-05
1.95237e-05
1.95274e-05
)
;

boundaryField
{
    ibCylinder
    {
        type            immersedBoundaryKqRWallFunction;
        patchType       immersedBoundary;
        setDeadValue    true;
        deadValue       0.00015;
        value           nonuniform List<scalar> 0();
    }
    in
    {
        type            fixedValue;
        value           uniform 0.00015;
    }
    out
    {
        type            inletOutlet;
        inletValue      uniform 0.00015;
        value           nonuniform List<scalar> 
25
(
1.94874e-05
1.66227e-05
1.31505e-05
1.04763e-05
8.87963e-06
8.08042e-06
7.73068e-06
7.5927e-06
7.54191e-06
7.52339e-06
7.51604e-06
7.5127e-06
7.51128e-06
7.51141e-06
7.51345e-06
7.51922e-06
7.53519e-06
7.58136e-06
7.71161e-06
8.05117e-06
8.84216e-06
1.0441e-05
1.31344e-05
1.66378e-05
1.95274e-05
)
;
    }
    top
    {
        type            zeroGradient;
    }
    bottom
    {
        type            zeroGradient;
    }
    frontAndBack
    {
        type            empty;
    }
}


// ************************************************************************* //
