/*--------------------------------*- C++ -*----------------------------------*\
| =========                 |                                                 |
| \\      /  F ield         | OpenFOAM: The Open Source CFD Toolbox           |
|  \\    /   O peration     | Version:  2206                                  |
|   \\  /    A nd           | Website:  www.openfoam.com                      |
|    \\/     M anipulation  |                                                 |
\*---------------------------------------------------------------------------*/
FoamFile
{
    version     2.0;
    format      ascii;
    arch        "LSB;label=32;scalar=64";
    class       volScalarField;
    location    "0.7";
    object      nut;
}
// * * * * * * * * * * * * * * * * * * * * * * * * * * * * * * * * * * * * * //

dimensions      [0 2 -1 0 0 0 0];

internalField   nonuniform List<scalar> 
1875
(
2.91406e-07
2.8805e-07
2.94056e-07
3.06583e-07
3.2346e-07
3.45131e-07
3.72477e-07
4.06348e-07
4.46798e-07
4.92508e-07
5.40924e-07
5.88982e-07
6.33967e-07
6.74081e-07
7.08596e-07
7.37667e-07
7.61992e-07
7.82872e-07
8.01727e-07
8.19973e-07
8.39004e-07
8.6023e-07
8.85148e-07
9.15439e-07
9.53047e-07
1.00024e-06
1.0596e-06
1.13387e-06
1.22557e-06
1.33621e-06
1.46513e-06
1.60862e-06
1.76065e-06
1.91633e-06
2.07609e-06
2.24209e-06
2.40136e-06
2.50859e-06
2.55315e-06
2.51759e-06
2.39944e-06
2.21172e-06
1.97864e-06
1.73101e-06
1.49745e-06
1.29807e-06
1.13877e-06
1.02254e-06
9.41539e-07
8.87444e-07
8.52545e-07
8.30388e-07
8.16617e-07
8.08231e-07
8.03013e-07
7.99649e-07
7.97671e-07
7.96598e-07
7.96092e-07
7.95947e-07
7.96014e-07
7.962e-07
7.96444e-07
7.96709e-07
7.96969e-07
7.97211e-07
7.97428e-07
7.97617e-07
7.9778e-07
7.97917e-07
7.98033e-07
7.98136e-07
7.98238e-07
7.98361e-07
7.98512e-07
2.90329e-07
2.83177e-07
2.79876e-07
2.80802e-07
2.86362e-07
2.96061e-07
3.10526e-07
3.3043e-07
3.56216e-07
3.87753e-07
4.24053e-07
4.63337e-07
5.03397e-07
5.42101e-07
5.77797e-07
6.0951e-07
6.36557e-07
6.59034e-07
6.77691e-07
6.934e-07
7.07062e-07
7.19561e-07
7.31748e-07
7.44451e-07
7.58478e-07
7.74612e-07
7.93554e-07
8.15761e-07
8.41065e-07
8.6793e-07
8.924e-07
9.07922e-07
9.09205e-07
9.00212e-07
8.97209e-07
9.17878e-07
9.74418e-07
1.07361e-06
1.17344e-06
1.25666e-06
1.30712e-06
1.31645e-06
1.2849e-06
1.2198e-06
1.1331e-06
1.03827e-06
9.47815e-07
8.70763e-07
8.11637e-07
7.70381e-07
7.44134e-07
7.28949e-07
7.21045e-07
7.17527e-07
7.16339e-07
7.16211e-07
7.16484e-07
7.16857e-07
7.17201e-07
7.17493e-07
7.17719e-07
7.17888e-07
7.18013e-07
7.18107e-07
7.18181e-07
7.1824e-07
7.18291e-07
7.18334e-07
7.18373e-07
7.18408e-07
7.18441e-07
7.18475e-07
7.18522e-07
7.1862e-07
7.18908e-07
2.9004e-07
2.82061e-07
2.76493e-07
2.73108e-07
2.72011e-07
2.73397e-07
2.77672e-07
2.85129e-07
2.96249e-07
3.11405e-07
3.30649e-07
3.53629e-07
3.79546e-07
4.07256e-07
4.35457e-07
4.62908e-07
4.88685e-07
5.11521e-07
5.31035e-07
5.47181e-07
5.60138e-07
5.70234e-07
5.77862e-07
5.83433e-07
5.87283e-07
5.896e-07
5.90248e-07
5.88414e-07
5.81861e-07
5.65557e-07
5.30495e-07
4.67577e-07
3.81903e-07
2.97905e-07
2.38466e-07
2.06165e-07
1.99976e-07
2.23801e-07
2.71455e-07
3.37548e-07
4.12923e-07
4.86005e-07
5.46318e-07
5.87058e-07
6.06451e-07
6.07512e-07
5.96327e-07
5.79773e-07
5.63928e-07
5.52916e-07
5.48464e-07
5.50221e-07
5.56537e-07
5.65365e-07
5.74899e-07
5.83882e-07
5.91663e-07
5.98028e-07
6.02868e-07
6.06422e-07
6.0894e-07
6.10687e-07
6.11877e-07
6.12665e-07
6.13171e-07
6.13489e-07
6.13685e-07
6.13803e-07
6.13872e-07
6.13913e-07
6.13937e-07
6.13956e-07
6.13979e-07
6.14036e-07
6.14238e-07
2.89951e-07
2.81694e-07
2.75505e-07
2.70892e-07
2.67662e-07
2.6579e-07
2.65384e-07
2.66653e-07
2.6994e-07
2.75596e-07
2.83814e-07
2.94764e-07
3.0841e-07
3.24469e-07
3.4242e-07
3.61569e-07
3.81203e-07
4.0055e-07
4.18622e-07
4.34745e-07
4.48464e-07
4.59543e-07
4.67902e-07
4.73567e-07
4.76536e-07
4.76599e-07
4.72972e-07
4.63622e-07
4.43839e-07
4.0414e-07
3.32358e-07
2.32245e-07
1.3871e-07
7.82907e-08
4.79531e-08
3.29238e-08
2.69478e-08
2.75488e-08
3.51207e-08
5.09743e-08
7.64962e-08
1.11508e-07
1.53382e-07
1.97234e-07
2.37603e-07
2.70523e-07
2.94824e-07
3.11858e-07
3.2445e-07
3.35855e-07
3.48705e-07
3.64423e-07
3.831e-07
4.03776e-07
4.24956e-07
4.45143e-07
4.63206e-07
4.78531e-07
4.91007e-07
5.00739e-07
5.08038e-07
5.13356e-07
5.17137e-07
5.19772e-07
5.21568e-07
5.22769e-07
5.23556e-07
5.24062e-07
5.24382e-07
5.24581e-07
5.24703e-07
5.24779e-07
5.24829e-07
5.24883e-07
5.25022e-07
2.89926e-07
2.81554e-07
2.75134e-07
2.70128e-07
2.66214e-07
2.63237e-07
2.61159e-07
2.60051e-07
2.60064e-07
2.61416e-07
2.64343e-07
2.69117e-07
2.75953e-07
2.84938e-07
2.95967e-07
3.08802e-07
3.23045e-07
3.38329e-07
3.53911e-07
3.69036e-07
3.8301e-07
3.95266e-07
4.05356e-07
4.12906e-07
4.17528e-07
4.18395e-07
4.13755e-07
3.99697e-07
3.67745e-07
3.03597e-07
2.02686e-07
1.02001e-07
4.24644e-08
1.70108e-08
7.83126e-09
3.88806e-09
2.37647e-09
2.12904e-09
2.79587e-09
5.01353e-09
9.94234e-09
1.90422e-08
3.34268e-08
5.31002e-08
7.65994e-08
1.01499e-07
1.2547e-07
1.47091e-07
1.66316e-07
1.84312e-07
2.02779e-07
2.23232e-07
2.46501e-07
2.72501e-07
3.00292e-07
3.28398e-07
3.55231e-07
3.79482e-07
4.00339e-07
4.17511e-07
4.31143e-07
4.41569e-07
4.49303e-07
4.54898e-07
4.58856e-07
4.616e-07
4.63466e-07
4.64714e-07
4.65534e-07
4.66065e-07
4.66405e-07
4.66619e-07
4.66755e-07
4.66851e-07
4.66968e-07
2.89917e-07
2.81502e-07
2.74975e-07
2.69797e-07
2.65629e-07
2.62267e-07
2.59608e-07
2.57643e-07
2.5644e-07
2.56151e-07
2.5699e-07
2.59207e-07
2.6306e-07
2.6876e-07
2.76409e-07
2.85984e-07
2.97305e-07
3.1011e-07
3.23941e-07
3.38154e-07
3.52053e-07
3.6494e-07
3.76096e-07
3.84891e-07
3.90405e-07
3.91086e-07
3.83848e-07
3.62071e-07
3.12422e-07
2.20296e-07
1.08831e-07
3.70999e-08
1.0458e-08
2.66869e-09
7.79266e-10
1.92473e-10
5.15998e-11
2.71832e-11
5.4429e-11
2.24946e-10
8.81016e-10
2.69957e-09
6.60538e-09
1.35284e-08
2.37045e-08
3.67117e-08
5.15342e-08
6.70504e-08
8.26579e-08
9.85404e-08
1.15539e-07
1.34754e-07
1.57112e-07
1.83002e-07
2.12068e-07
2.43217e-07
2.74857e-07
3.05277e-07
3.33013e-07
3.57092e-07
3.77096e-07
3.9309e-07
4.05447e-07
4.14696e-07
4.21442e-07
4.2625e-07
4.29607e-07
4.31907e-07
4.33456e-07
4.34483e-07
4.35154e-07
4.35587e-07
4.35863e-07
4.36042e-07
4.36176e-07
2.89914e-07
2.81481e-07
2.74905e-07
2.69641e-07
2.65349e-07
2.61821e-07
2.5894e-07
2.5667e-07
2.55052e-07
2.54206e-07
2.54321e-07
2.5564e-07
2.58429e-07
2.62929e-07
2.69323e-07
2.77663e-07
2.87856e-07
2.99672e-07
3.1273e-07
3.26467e-07
3.40207e-07
3.53195e-07
3.64619e-07
3.73603e-07
3.78669e-07
3.77419e-07
3.65093e-07
3.31611e-07
2.59238e-07
1.45343e-07
4.93309e-08
1.08787e-08
1.81726e-09
1.99037e-10
2.24077e-11
1.29708e-12
9.00268e-14
2.71786e-14
1.52043e-13
2.27509e-12
3.18814e-11
2.6764e-10
1.23128e-09
3.59967e-09
7.87649e-09
1.42442e-08
2.24977e-08
3.21579e-08
4.28998e-08
5.47923e-08
6.83631e-08
8.44572e-08
1.03948e-07
1.27425e-07
1.54931e-07
1.85823e-07
2.18816e-07
2.52213e-07
2.84253e-07
3.13442e-07
3.38789e-07
3.59866e-07
3.76726e-07
3.89768e-07
3.9955e-07
4.06695e-07
4.11794e-07
4.15358e-07
4.17802e-07
4.1945e-07
4.20543e-07
4.21259e-07
4.21721e-07
4.22017e-07
4.22202e-07
2.89913e-07
2.81472e-07
2.74872e-07
2.69564e-07
2.65208e-07
2.61595e-07
2.5861e-07
2.56218e-07
2.54458e-07
2.53448e-07
2.53374e-07
2.54479e-07
2.57027e-07
2.61268e-07
2.67388e-07
2.75457e-07
2.85398e-07
2.96981e-07
3.09825e-07
3.23388e-07
3.36996e-07
3.49867e-07
3.61069e-07
3.69381e-07
3.72907e-07
3.68301e-07
3.48846e-07
3.00521e-07
2.04551e-07
8.52202e-08
1.87381e-08
2.37746e-09
1.45444e-10
3.30099e-12
8.9802e-15
1e-06
1e-06
1e-06
1e-06
1e-06
6.65382e-14
3.51308e-12
1.13871e-10
8.2578e-10
2.65968e-09
5.91569e-09
1.06444e-08
1.67194e-08
2.40633e-08
3.28287e-08
4.34707e-08
5.67108e-08
7.33554e-08
9.40649e-08
1.19125e-07
1.48269e-07
1.80598e-07
2.14666e-07
2.48724e-07
2.8104e-07
3.10214e-07
3.35361e-07
3.56141e-07
3.72675e-07
3.85401e-07
3.9491e-07
4.01831e-07
4.06753e-07
4.10182e-07
4.12527e-07
4.14103e-07
4.15146e-07
4.15826e-07
4.16262e-07
4.16523e-07
2.89912e-07
2.81467e-07
2.74855e-07
2.69524e-07
2.65133e-07
2.61475e-07
2.58438e-07
2.5599e-07
2.54181e-07
2.53135e-07
2.53048e-07
2.54169e-07
2.56766e-07
2.61084e-07
2.67301e-07
2.75475e-07
2.85513e-07
2.97161e-07
3.10014e-07
3.23512e-07
3.36964e-07
3.49529e-07
3.60149e-07
3.67337e-07
3.68721e-07
3.59987e-07
3.32232e-07
2.67477e-07
1.52195e-07
4.44964e-08
5.79548e-09
2.9001e-10
2.98737e-12
1e-06
1e-06
1e-06
1e-06
1e-06
1e-06
1e-06
1e-06
3.44657e-15
1.90426e-12
1.16961e-10
8.32306e-10
2.54495e-09
5.39692e-09
9.41977e-09
1.46798e-08
2.14007e-08
3.00134e-08
4.11519e-08
5.55488e-08
7.38712e-08
9.65399e-08
1.23553e-07
1.54356e-07
1.87822e-07
2.22379e-07
2.56284e-07
2.87911e-07
3.16031e-07
3.39943e-07
3.59467e-07
3.74839e-07
3.86559e-07
3.95243e-07
4.01515e-07
4.05945e-07
4.09011e-07
4.11095e-07
4.12487e-07
4.13402e-07
4.13993e-07
4.14344e-07
2.89912e-07
2.81465e-07
2.74846e-07
2.69502e-07
2.65092e-07
2.6141e-07
2.58345e-07
2.55871e-07
2.54045e-07
2.53003e-07
2.5295e-07
2.54143e-07
2.56856e-07
2.61331e-07
2.67733e-07
2.76101e-07
2.86319e-07
2.98104e-07
3.11017e-07
3.24472e-07
3.37738e-07
3.49914e-07
3.59815e-07
3.6572e-07
3.64808e-07
3.51795e-07
3.15421e-07
2.34153e-07
1.07187e-07
2.07994e-08
1.34033e-09
1.71384e-11
1.71556e-15
1e-06
1e-06
1e-06
1e-06
1e-06
1e-06
1e-06
1e-06
1e-06
2.29698e-14
5.79885e-12
2.08547e-10
1.06538e-09
2.83448e-09
5.63443e-09
9.60999e-09
1.50184e-08
2.22669e-08
3.19187e-08
4.46342e-08
6.10644e-08
8.17063e-08
1.06739e-07
1.35871e-07
1.68265e-07
2.02572e-07
2.37125e-07
2.70218e-07
3.00402e-07
3.2669e-07
3.48628e-07
3.66241e-07
3.79901e-07
3.90176e-07
3.97698e-07
4.03073e-07
4.06831e-07
4.09408e-07
4.11144e-07
4.12295e-07
4.13042e-07
4.13486e-07
2.89912e-07
2.81463e-07
2.7484e-07
2.69489e-07
2.65069e-07
2.61373e-07
2.58294e-07
2.55808e-07
2.53978e-07
2.52947e-07
2.5293e-07
2.54192e-07
2.57009e-07
2.61623e-07
2.68189e-07
2.76729e-07
2.87106e-07
2.99012e-07
3.11977e-07
3.25384e-07
3.38467e-07
3.50263e-07
3.59483e-07
3.64209e-07
3.61237e-07
3.4436e-07
2.99807e-07
2.02985e-07
7.2095e-08
8.60239e-09
1.91028e-10
5.55174e-13
1e-06
1e-06
1e-06
1e-06
1e-06
1e-06
1e-06
1e-06
1e-06
1e-06
1e-06
2.37969e-13
3.01222e-11
3.9408e-10
1.47807e-09
3.476e-09
6.58552e-09
1.10831e-08
1.73589e-08
2.59268e-08
3.73982e-08
5.24065e-08
7.14937e-08
9.4957e-08
1.22688e-07
1.54061e-07
1.87913e-07
2.2268e-07
2.56641e-07
2.88214e-07
3.16214e-07
3.39974e-07
3.59341e-07
3.74565e-07
3.86153e-07
3.94725e-07
4.00907e-07
4.05266e-07
4.08277e-07
4.1032e-07
4.11681e-07
4.1257e-07
4.13101e-07
2.89912e-07
2.81463e-07
2.74838e-07
2.69483e-07
2.65057e-07
2.61355e-07
2.58268e-07
2.55777e-07
2.53946e-07
2.52925e-07
2.52933e-07
2.54241e-07
2.57128e-07
2.61834e-07
2.68508e-07
2.77163e-07
2.87646e-07
2.9963e-07
3.12625e-07
3.2599e-07
3.38931e-07
3.50443e-07
3.59164e-07
3.63045e-07
3.58596e-07
3.38809e-07
2.87309e-07
1.76283e-07
4.67168e-08
3.05193e-09
1.5171e-11
2.455e-14
1e-06
1e-06
1e-06
1e-06
1e-06
1e-06
1e-06
1e-06
1e-06
1e-06
1e-06
1.97181e-14
4.87608e-12
1.34855e-10
7.89735e-10
2.24104e-09
4.74175e-09
8.59152e-09
1.41783e-08
2.19967e-08
3.26366e-08
4.67235e-08
6.48199e-08
8.72859e-08
1.14114e-07
1.44801e-07
1.78303e-07
2.1313e-07
2.47569e-07
2.79976e-07
3.09051e-07
3.33992e-07
3.54524e-07
3.70812e-07
3.83311e-07
3.92625e-07
3.99386e-07
4.04182e-07
4.07513e-07
4.09784e-07
4.11305e-07
4.12302e-07
4.129e-07
2.89912e-07
2.81462e-07
2.74837e-07
2.69481e-07
2.65054e-07
2.61349e-07
2.5826e-07
2.55768e-07
2.53938e-07
2.52922e-07
2.52942e-07
2.54271e-07
2.57188e-07
2.61935e-07
2.68657e-07
2.77362e-07
2.87889e-07
2.99905e-07
3.1291e-07
3.26254e-07
3.39133e-07
3.50527e-07
3.5905e-07
3.62604e-07
3.57577e-07
3.36505e-07
2.80811e-07
1.57514e-07
2.96443e-08
8.43281e-10
5.86537e-13
1.53894e-16
1e-06
1e-06
1e-06
1e-06
1e-06
1e-06
1e-06
1e-06
1e-06
1e-06
1e-06
6.38625e-15
2.03486e-12
7.60683e-11
5.54412e-10
1.7726e-09
4.0063e-09
7.58183e-09
1.28978e-08
2.04459e-08
3.0802e-08
4.45865e-08
6.23541e-08
8.44743e-08
1.10965e-07
1.4136e-07
1.74664e-07
2.09426e-07
2.43952e-07
2.76594e-07
3.06021e-07
3.31385e-07
3.52365e-07
3.69083e-07
3.81969e-07
3.9161e-07
3.98637e-07
4.0364e-07
4.07128e-07
4.09514e-07
4.11117e-07
4.12171e-07
4.12806e-07
2.89912e-07
2.81463e-07
2.74838e-07
2.69483e-07
2.65057e-07
2.61355e-07
2.58268e-07
2.55778e-07
2.53951e-07
2.52935e-07
2.52953e-07
2.54276e-07
2.57185e-07
2.6192e-07
2.68628e-07
2.77316e-07
2.87828e-07
2.99829e-07
3.12825e-07
3.26177e-07
3.39089e-07
3.50564e-07
3.59246e-07
3.63102e-07
3.58661e-07
3.3899e-07
2.88306e-07
1.8082e-07
5.17055e-08
3.62141e-09
1.53603e-11
2.50468e-14
1e-06
1e-06
1e-06
1e-06
1e-06
1e-06
1e-06
1e-06
1e-06
1e-06
1e-06
1.94154e-14
4.77061e-12
1.32164e-10
7.75949e-10
2.21522e-09
4.71897e-09
8.60141e-09
1.42553e-08
2.21663e-08
3.29022e-08
4.70578e-08
6.51621e-08
8.75475e-08
1.14194e-07
1.44606e-07
1.77774e-07
2.1226e-07
2.46404e-07
2.78608e-07
3.07592e-07
3.3255e-07
3.53188e-07
3.69637e-07
3.82324e-07
3.91827e-07
3.98762e-07
4.03708e-07
4.07162e-07
4.0953e-07
4.11124e-07
4.12174e-07
4.12808e-07
2.89912e-07
2.81463e-07
2.7484e-07
2.69489e-07
2.65069e-07
2.61374e-07
2.58295e-07
2.55811e-07
2.53987e-07
2.52966e-07
2.52968e-07
2.54259e-07
2.57119e-07
2.61787e-07
2.68415e-07
2.7702e-07
2.87452e-07
2.99391e-07
3.12361e-07
3.25741e-07
3.38767e-07
3.50485e-07
3.59622e-07
3.64288e-07
3.61308e-07
3.44528e-07
3.00557e-07
2.06371e-07
7.73877e-08
9.81664e-09
1.92698e-10
5.55646e-13
1e-06
1e-06
1e-06
1e-06
1e-06
1e-06
1e-06
1e-06
1e-06
1e-06
1e-06
2.30825e-13
2.89133e-11
3.79891e-10
1.43055e-09
3.3966e-09
6.50888e-09
1.10718e-08
1.74812e-08
2.62287e-08
3.78783e-08
5.30004e-08
7.20723e-08
9.53415e-08
1.22683e-07
1.53498e-07
1.86699e-07
2.20822e-07
2.54248e-07
2.85475e-07
3.13347e-07
3.37183e-07
3.56781e-07
3.72334e-07
3.84291e-07
3.93227e-07
3.9974e-07
4.0438e-07
4.07621e-07
4.09842e-07
4.11339e-07
4.12327e-07
4.12923e-07
2.89912e-07
2.81465e-07
2.74846e-07
2.69502e-07
2.65092e-07
2.6141e-07
2.58346e-07
2.55876e-07
2.54058e-07
2.5303e-07
2.53004e-07
2.54239e-07
2.57011e-07
2.61562e-07
2.68051e-07
2.76508e-07
2.86802e-07
2.98634e-07
3.11553e-07
3.24967e-07
3.38149e-07
3.50208e-07
3.59984e-07
3.65791e-07
3.64849e-07
3.51921e-07
3.15953e-07
2.3645e-07
1.11964e-07
2.27546e-08
1.3526e-09
1.70827e-11
1.73183e-15
1e-06
1e-06
1e-06
1e-06
1e-06
1e-06
1e-06
1e-06
1e-06
2.2036e-14
5.50223e-12
1.96025e-10
1.00392e-09
2.68644e-09
5.40124e-09
9.3496e-09
1.48317e-08
2.22608e-08
3.21605e-08
4.5113e-08
6.16701e-08
8.2234e-08
1.0692e-07
1.3543e-07
1.66987e-07
2.00365e-07
2.34049e-07
2.66473e-07
2.96276e-07
3.22494e-07
3.44632e-07
3.6264e-07
3.76805e-07
3.87617e-07
3.95653e-07
4.01485e-07
4.05627e-07
4.08513e-07
4.10488e-07
4.11817e-07
4.12694e-07
4.13223e-07
2.89912e-07
2.81467e-07
2.74855e-07
2.69524e-07
2.65134e-07
2.61476e-07
2.5844e-07
2.55997e-07
2.54197e-07
2.5317e-07
2.53117e-07
2.5429e-07
2.56958e-07
2.61368e-07
2.67689e-07
2.75967e-07
2.86091e-07
2.97791e-07
3.10642e-07
3.24083e-07
3.37421e-07
3.49833e-07
3.60288e-07
3.67342e-07
3.68675e-07
3.60024e-07
3.32606e-07
2.69047e-07
1.56158e-07
4.71493e-08
5.85621e-09
2.89307e-10
2.99221e-12
1e-06
1e-06
1e-06
1e-06
1e-06
1e-06
1e-06
1e-06
3.32999e-15
1.798e-12
1.08887e-10
7.7057e-10
2.34966e-09
5.00012e-09
8.81755e-09
1.39534e-08
2.06935e-08
2.94758e-08
4.08732e-08
5.55041e-08
7.38997e-08
9.63619e-08
1.22827e-07
1.52761e-07
1.85151e-07
2.18605e-07
2.51567e-07
2.82564e-07
3.10438e-07
3.34472e-07
3.54413e-07
3.7039e-07
3.82799e-07
3.92173e-07
3.9908e-07
4.04057e-07
4.07573e-07
4.10012e-07
4.11676e-07
4.12793e-07
4.13529e-07
4.1397e-07
2.89913e-07
2.81472e-07
2.74872e-07
2.69564e-07
2.65208e-07
2.61596e-07
2.58613e-07
2.56226e-07
2.54479e-07
2.53491e-07
2.53457e-07
2.5462e-07
2.57249e-07
2.6159e-07
2.67818e-07
2.75991e-07
2.86012e-07
2.9763e-07
3.1045e-07
3.23923e-07
3.37381e-07
3.5006e-07
3.6106e-07
3.69206e-07
3.72661e-07
3.68144e-07
3.49027e-07
3.01622e-07
2.0773e-07
8.86405e-08
1.9279e-08
2.38378e-09
1.45335e-10
3.32515e-12
9.12385e-15
1e-06
1e-06
1e-06
1e-06
1e-06
6.48614e-14
3.3343e-12
1.0609e-10
7.56596e-10
2.42689e-09
5.36889e-09
9.66654e-09
1.52964e-08
2.2309e-08
3.09442e-08
4.16594e-08
5.50829e-08
7.18644e-08
9.24966e-08
1.17141e-07
1.45499e-07
1.76751e-07
2.09631e-07
2.4261e-07
2.74157e-07
3.02986e-07
3.28227e-07
3.49471e-07
3.66724e-07
3.80297e-07
3.90676e-07
3.98411e-07
4.04048e-07
4.08074e-07
4.10896e-07
4.12842e-07
4.14162e-07
4.15045e-07
4.15625e-07
4.15972e-07
2.89914e-07
2.81481e-07
2.74905e-07
2.69641e-07
2.6535e-07
2.61822e-07
2.58944e-07
2.56681e-07
2.55078e-07
2.54259e-07
2.5442e-07
2.55805e-07
2.58679e-07
2.63277e-07
2.69768e-07
2.78189e-07
2.88425e-07
3.00229e-07
3.13208e-07
3.26797e-07
3.40333e-07
3.53082e-07
3.64269e-07
3.73064e-07
3.78048e-07
3.76892e-07
3.64924e-07
3.32264e-07
2.61627e-07
1.49086e-07
5.08089e-08
1.10557e-08
1.81682e-09
1.98574e-10
2.25863e-11
1.31135e-12
9.08623e-14
2.73645e-14
1.52144e-13
2.23679e-12
3.06356e-11
2.51737e-10
1.13453e-09
3.28671e-09
7.10751e-09
1.27524e-08
2.01053e-08
2.88754e-08
3.89336e-08
5.0457e-08
6.39438e-08
8.00867e-08
9.95519e-08
1.22743e-07
1.49611e-07
1.79553e-07
2.11445e-07
2.43823e-07
2.7515e-07
3.04073e-07
3.29633e-07
3.51332e-07
3.69099e-07
3.83191e-07
3.94045e-07
4.02193e-07
4.08175e-07
4.12478e-07
4.15517e-07
4.17628e-07
4.19072e-07
4.20045e-07
4.20692e-07
4.21115e-07
4.21369e-07
2.89917e-07
2.81502e-07
2.74975e-07
2.69797e-07
2.65629e-07
2.62268e-07
2.59614e-07
2.57658e-07
2.56476e-07
2.56223e-07
2.57116e-07
2.59406e-07
2.63346e-07
2.69131e-07
2.76847e-07
2.86448e-07
2.97735e-07
3.10436e-07
3.24093e-07
3.38068e-07
3.51688e-07
3.64285e-07
3.75177e-07
3.83775e-07
3.89209e-07
3.8999e-07
3.83117e-07
3.6212e-07
3.13964e-07
2.23692e-07
1.11424e-07
3.7772e-08
1.05185e-08
2.64931e-09
7.6845e-10
1.92738e-10
5.18416e-11
2.72402e-11
5.40288e-11
2.19591e-10
8.41737e-10
2.52245e-09
6.08143e-09
1.22602e-08
2.11977e-08
3.25506e-08
4.55738e-08
5.95033e-08
7.40078e-08
8.9341e-08
1.06206e-07
1.25444e-07
1.47721e-07
1.73264e-07
2.01706e-07
2.32095e-07
2.63067e-07
2.93131e-07
3.20964e-07
3.4561e-07
3.66572e-07
3.83779e-07
3.97454e-07
4.08003e-07
4.15942e-07
4.21786e-07
4.26003e-07
4.28992e-07
4.31077e-07
4.32508e-07
4.33477e-07
4.34124e-07
4.34552e-07
4.34831e-07
4.35002e-07
2.89926e-07
2.81554e-07
2.75134e-07
2.70128e-07
2.66214e-07
2.63239e-07
2.61168e-07
2.60075e-07
2.60119e-07
2.61522e-07
2.64521e-07
2.69379e-07
2.76297e-07
2.85338e-07
2.9637e-07
3.09133e-07
3.2322e-07
3.38264e-07
3.53544e-07
3.68327e-07
3.81954e-07
3.93893e-07
4.03726e-07
4.11108e-07
4.15679e-07
4.16657e-07
4.12362e-07
3.99007e-07
3.68336e-07
3.06082e-07
2.05918e-07
1.03584e-07
4.27192e-08
1.68815e-08
7.67663e-09
3.81428e-09
2.32564e-09
2.07398e-09
2.72917e-09
4.85522e-09
9.46446e-09
1.77675e-08
3.06086e-08
4.78498e-08
6.82023e-08
8.97403e-08
1.10765e-07
1.30344e-07
1.48591e-07
1.66496e-07
1.8538e-07
2.06367e-07
2.30022e-07
2.56194e-07
2.84053e-07
3.12324e-07
3.39611e-07
3.64705e-07
3.86779e-07
4.05441e-07
4.20698e-07
4.32747e-07
4.41995e-07
4.48929e-07
4.54018e-07
4.57685e-07
4.60281e-07
4.62089e-07
4.63329e-07
4.64168e-07
4.64729e-07
4.65099e-07
4.65341e-07
4.65503e-07
4.6562e-07
2.89951e-07
2.81694e-07
2.75505e-07
2.70892e-07
2.67662e-07
2.65793e-07
2.65399e-07
2.66694e-07
2.70031e-07
2.75763e-07
2.84075e-07
2.95115e-07
3.08817e-07
3.24861e-07
3.42703e-07
3.61635e-07
3.80958e-07
3.99932e-07
4.17608e-07
4.33349e-07
4.46739e-07
4.57562e-07
4.65748e-07
4.7133e-07
4.74309e-07
4.74496e-07
4.71159e-07
4.62366e-07
4.4358e-07
4.05484e-07
3.35281e-07
2.34844e-07
1.39478e-07
7.7757e-08
4.69761e-08
3.20233e-08
2.6079e-08
2.65745e-08
3.37973e-08
4.85612e-08
7.18206e-08
1.031e-07
1.39865e-07
1.77861e-07
2.12643e-07
2.41266e-07
2.63165e-07
2.79727e-07
2.93357e-07
3.06666e-07
3.21689e-07
3.3946e-07
3.59944e-07
3.82256e-07
4.05063e-07
4.27001e-07
4.46987e-07
4.64359e-07
4.78916e-07
4.9065e-07
4.99782e-07
5.06707e-07
5.11845e-07
5.15587e-07
5.18262e-07
5.20141e-07
5.2144e-07
5.22325e-07
5.2292e-07
5.23314e-07
5.23572e-07
5.23741e-07
5.23854e-07
5.23941e-07
5.24047e-07
2.9004e-07
2.82061e-07
2.76493e-07
2.73108e-07
2.72012e-07
2.73403e-07
2.77699e-07
2.852e-07
2.96397e-07
3.11652e-07
3.30992e-07
3.54022e-07
3.79902e-07
4.07461e-07
4.35399e-07
4.62505e-07
4.879e-07
5.10373e-07
5.29578e-07
5.45494e-07
5.58307e-07
5.68336e-07
5.75959e-07
5.8157e-07
5.85497e-07
5.87938e-07
5.88791e-07
5.87318e-07
5.8141e-07
5.66206e-07
5.32633e-07
4.70584e-07
3.83796e-07
2.97177e-07
2.35289e-07
2.01524e-07
1.94128e-07
2.16313e-07
2.61069e-07
3.21782e-07
3.89523e-07
4.53718e-07
5.05423e-07
5.39386e-07
5.54904e-07
5.55307e-07
5.46257e-07
5.33739e-07
5.22822e-07
5.16823e-07
5.17e-07
5.22854e-07
5.32799e-07
5.44915e-07
5.57493e-07
5.69311e-07
5.79705e-07
5.88425e-07
5.95321e-07
6.0062e-07
6.0458e-07
6.07489e-07
6.09592e-07
6.1108e-07
6.12115e-07
6.12822e-07
6.13299e-07
6.13616e-07
6.13826e-07
6.13962e-07
6.14053e-07
6.14116e-07
6.1417e-07
6.14243e-07
6.14404e-07
2.90329e-07
2.83177e-07
2.79876e-07
2.80803e-07
2.86365e-07
2.96077e-07
3.10576e-07
3.30543e-07
3.56411e-07
3.88015e-07
4.24321e-07
4.63512e-07
5.03375e-07
5.41809e-07
5.77215e-07
6.08675e-07
6.35549e-07
6.57951e-07
6.76626e-07
6.92431e-07
7.0624e-07
7.18913e-07
7.31278e-07
7.44154e-07
7.5835e-07
7.7467e-07
7.93858e-07
8.16443e-07
8.42367e-07
8.70236e-07
8.96189e-07
9.13371e-07
9.15468e-07
9.05277e-07
8.99063e-07
9.15595e-07
9.67421e-07
1.06164e-06
1.15334e-06
1.22603e-06
1.26514e-06
1.26436e-06
1.22576e-06
1.15766e-06
1.072e-06
9.81425e-07
8.97221e-07
8.27273e-07
7.75111e-07
7.40167e-07
7.19402e-07
7.08902e-07
7.04995e-07
7.04889e-07
7.066e-07
7.08918e-07
7.11222e-07
7.13251e-07
7.14921e-07
7.16256e-07
7.17288e-07
7.18066e-07
7.18644e-07
7.19069e-07
7.1938e-07
7.19608e-07
7.19774e-07
7.19897e-07
7.19989e-07
7.2006e-07
7.20118e-07
7.20175e-07
7.2025e-07
7.20385e-07
7.20684e-07
2.91406e-07
2.8805e-07
2.94058e-07
3.06589e-07
3.23481e-07
3.45187e-07
3.72588e-07
4.06511e-07
4.46966e-07
4.92592e-07
5.4082e-07
5.88616e-07
6.33326e-07
6.73224e-07
7.07633e-07
7.36727e-07
7.61199e-07
7.82321e-07
8.01478e-07
8.20056e-07
8.39425e-07
8.60977e-07
8.86211e-07
9.16821e-07
9.54792e-07
1.00246e-06
1.06253e-06
1.13793e-06
1.23145e-06
1.34496e-06
1.47823e-06
1.62775e-06
1.78711e-06
1.9503e-06
2.11627e-06
2.28595e-06
2.445e-06
2.54609e-06
2.57951e-06
2.52915e-06
2.39481e-06
2.19205e-06
1.94729e-06
1.69267e-06
1.45695e-06
1.25931e-06
1.10427e-06
9.93291e-07
9.17605e-07
8.68379e-07
8.37715e-07
8.19142e-07
8.0835e-07
8.02402e-07
7.99155e-07
7.97363e-07
7.96618e-07
7.96498e-07
7.96719e-07
7.97119e-07
7.97589e-07
7.98068e-07
7.98522e-07
7.98935e-07
7.99298e-07
7.99611e-07
7.99875e-07
8.00097e-07
8.00281e-07
8.00434e-07
8.00566e-07
8.00694e-07
8.00852e-07
8.01111e-07
8.01605e-07
)
;

boundaryField
{
    ibCylinder
    {
        type            immersedBoundaryNutWallFunction;
        patchType       immersedBoundary;
        blending        stepwise;
        value           nonuniform List<scalar> 0();
    }
    in
    {
        type            zeroGradient;
    }
    out
    {
        type            zeroGradient;
    }
    top
    {
        type            zeroGradient;
    }
    bottom
    {
        type            zeroGradient;
    }
    frontAndBack
    {
        type            empty;
    }
}


// ************************************************************************* //
