/*--------------------------------*- C++ -*----------------------------------*\
| =========                 |                                                 |
| \\      /  F ield         | OpenFOAM: The Open Source CFD Toolbox           |
|  \\    /   O peration     | Version:  2206                                  |
|   \\  /    A nd           | Website:  www.openfoam.com                      |
|    \\/     M anipulation  |                                                 |
\*---------------------------------------------------------------------------*/
FoamFile
{
    version     2.0;
    format      ascii;
    arch        "LSB;label=32;scalar=64";
    class       volScalarField;
    location    "0.7";
    object      omega;
}
// * * * * * * * * * * * * * * * * * * * * * * * * * * * * * * * * * * * * * //

dimensions      [0 0 -1 0 0 0 0];

internalField   nonuniform List<scalar> 
1875
(
293.474
184.575
128.042
94.9968
74.0999
60.2643
50.7373
43.9504
38.9881
35.2953
32.5216
30.4352
28.8746
27.7223
26.8895
26.3092
25.927
25.7049
25.6161
25.6442
25.7817
26.0297
26.3977
26.9045
27.5787
28.4597
29.5989
31.0597
32.918
35.2599
38.1777
41.7559
46.0347
50.9408
56.2409
61.5453
66.1852
69.2234
70.5662
69.9408
67.3696
63.1644
57.8287
51.9931
46.2591
41.0916
36.6739
33.1937
30.5455
28.6022
27.2191
26.2533
25.5939
25.153
24.8584
24.6609
24.5348
24.4571
24.4113
24.3865
24.3747
24.3711
24.3721
24.3756
24.3803
24.3852
24.3899
24.3942
24.398
24.4011
24.4037
24.4056
24.4067
24.4065
24.4046
293.24
189.68
135.116
102.353
81.0676
66.3399
55.7733
47.9898
42.1382
37.6736
34.2358
31.5778
29.5232
27.9421
26.7361
25.8279
25.154
24.6631
24.3174
24.0876
23.9521
23.896
23.9105
23.9928
24.1462
24.3808
24.7152
25.1794
25.8213
26.721
28.0154
29.9193
32.672
36.3305
40.5225
44.6275
48.0125
50.7018
52.9229
54.4554
55.0798
54.6456
53.0975
50.5061
47.094
43.2053
39.2461
35.5689
32.4131
29.8662
27.9092
26.4622
25.422
24.6912
24.1843
23.8351
23.5969
23.4363
23.3284
23.2571
23.2102
23.1799
23.1605
23.1483
23.1409
23.1365
23.1341
23.1328
23.1323
23.1322
23.1322
23.1323
23.1321
23.1303
23.1221
293.164
189.994
136.854
105.127
84.2881
69.7052
59.0569
51.0126
44.7922
39.9034
36.018
32.9084
30.4111
28.4059
26.8004
25.5219
24.5114
23.7176
23.0981
22.618
22.2484
21.9663
21.754
21.6007
21.5018
21.4623
21.5005
21.6566
22.0158
22.763
24.297
27.3649
32.8875
41.1096
50.4358
58.7062
63.4958
63.9983
63.3293
62.0479
60.3366
58.2865
55.9026
53.1424
49.9764
46.4392
42.6569
38.8374
35.2253
32.0208
29.3367
27.1957
25.554
24.3339
23.4486
22.8179
22.3754
22.0696
21.8588
21.7146
21.6163
21.5498
21.5055
21.4759
21.4562
21.4431
21.4345
21.4287
21.425
21.4225
21.4208
21.4197
21.4186
21.4166
21.4094
293.088
189.326
136.377
105.218
84.9355
70.7656
60.3503
52.403
46.1793
41.2134
37.1857
33.8858
31.1653
28.9161
27.0565
25.5224
24.263
23.2367
22.4065
21.7398
21.2083
20.7877
20.4582
20.2066
20.0283
19.932
19.9474
20.1501
20.7252
22.1478
25.6025
33.5431
49.1127
73.3118
99.8718
123.965
136.553
132.222
121.931
110.328
98.6146
87.7031
78.0202
69.6188
62.3337
55.9313
50.1891
44.9645
40.2224
36.0058
32.3722
29.3494
26.9194
25.0254
23.5879
22.5215
21.7455
21.1905
20.8
20.5289
20.3426
20.2155
20.1295
20.072
20.0337
20.0085
19.9918
19.9809
19.9737
19.969
19.9659
19.9638
19.9622
19.9601
19.954
293.045
188.858
135.602
104.472
84.4184
70.5333
60.3813
52.6481
46.5729
41.6877
37.6866
34.3687
31.5952
29.2653
27.3017
25.6484
24.2616
23.1065
22.1533
21.3756
20.7491
20.252
19.8661
19.5796
19.3926
19.3211
19.4185
19.8299
20.9596
23.9883
32.1866
52.792
95.2462
164.922
240.318
324.598
377.939
349.902
298.797
245.042
196.793
157.922
127.957
105.131
87.7032
74.2563
63.6604
55.1007
48.0272
42.1018
37.1363
33.0162
29.6549
26.9674
24.8636
23.2503
22.0372
21.1418
20.4924
20.029
19.7039
19.4788
19.3248
19.2208
19.1513
19.1053
19.0751
19.0555
19.0428
19.0346
19.0294
19.026
19.0236
19.0213
19.0155
293.024
188.607
135.064
103.765
83.6875
69.8804
59.8612
52.2778
46.3437
41.5767
37.6688
34.4161
31.6794
29.3603
27.3871
25.7082
24.2845
23.0853
22.0852
21.262
20.5959
20.0682
19.6622
19.3727
19.2046
19.1898
19.4237
20.1805
22.3123
28.5892
47.3574
98.1069
208.997
419.319
667.519
1106.92
1604.53
1615.58
1185.09
731.028
450.037
299.525
213.127
158.861
123.056
98.4159
80.756
67.582
57.4123
49.3358
42.8023
37.4819
33.1582
29.6734
26.8995
24.7245
23.047
21.7754
20.828
20.1341
19.6344
19.2805
19.0336
18.864
18.749
18.6721
18.6213
18.588
18.5665
18.5527
18.544
18.5384
18.5347
18.5317
18.5256
293.013
188.478
134.753
103.296
83.1183
69.2744
59.2708
51.7389
45.8763
41.1883
37.3579
34.1751
31.4966
29.2228
27.2837
25.6284
24.2191
23.0267
22.0273
21.2012
20.5306
19.9995
19.597
19.324
19.1924
19.258
19.6829
20.9662
24.8205
37.3682
78.5547
198.844
501.022
1291.93
2544.4
6801.05
17633.3
24973.1
12873.1
4416.79
1441.84
636.946
343.594
221.953
158.501
120.596
95.7965
78.4165
65.5762
55.7062
47.8978
41.6129
36.5205
32.397
29.0783
26.4341
24.3541
22.7419
21.5121
20.5896
19.9094
19.4164
19.065
18.8186
18.6486
18.533
18.4556
18.4044
18.371
18.3494
18.3357
18.3269
18.3213
18.3171
18.3104
293.008
188.412
134.58
103.013
82.7459
68.8406
58.8049
51.2667
45.4186
40.7604
36.9693
33.8302
31.1963
28.9657
27.0663
25.4464
24.0678
22.9012
21.9235
21.1153
20.4601
19.9446
19.5612
19.3136
19.2293
19.3958
20.0731
22.1294
28.8438
53.0675
140.731
431.506
1460.39
6591.94
108004
500
500
500
500
500
22644.1
3336.31
734.713
315.758
192.674
136.869
105.355
84.9653
70.5457
59.7252
51.2762
44.5106
39.0211
34.547
30.9057
27.9607
25.6017
23.7357
22.2811
21.1655
20.3245
19.7016
19.2485
18.9245
18.6969
18.5396
18.4326
18.361
18.3136
18.2828
18.263
18.2503
18.2422
18.2364
18.2288
293.005
188.374
134.48
102.844
82.5141
68.5575
58.4843
50.9228
45.0648
40.4082
36.6282
33.5075
30.8975
28.6942
26.824
25.2338
23.884
22.7446
21.792
21.0066
20.3721
19.8766
19.5153
19.2981
19.2676
19.5511
20.546
23.6957
35.018
80.6404
267.682
1092.95
7499.59
500
500
500
500
500
500
500
500
59932.3
2990.69
517.16
228.779
146.159
108.555
86.6416
71.894
61.06
52.6587
45.9261
40.4308
35.9072
32.1768
29.1107
26.609
24.5901
22.9827
21.7239
20.7549
20.0227
19.4798
19.0847
18.8025
18.6044
18.4679
18.3752
18.3133
18.2726
18.2461
18.2292
18.2183
18.2107
18.202
293.003
188.353
134.421
102.742
82.3709
68.3788
58.2768
50.6935
44.8208
40.1566
36.3753
33.2593
30.659
28.4697
26.6168
25.046
23.7169
22.5985
21.6663
20.9001
20.2837
19.806
19.465
19.2769
19.2997
19.7079
21.0787
25.7161
44.3245
129.629
547.348
3259.25
292850
500
500
500
500
500
500
500
500
500
14858.4
1197.83
285.951
153.142
108.032
85.1647
70.7583
60.4718
52.5608
46.2051
40.9722
36.6093
32.9549
29.8976
27.3552
25.2624
23.5632
22.206
21.1416
20.3229
19.7058
19.2497
18.9193
18.6845
18.5206
18.4082
18.3324
18.282
18.2491
18.2278
18.2141
18.2048
18.195
293.002
188.34
134.386
102.681
82.2847
68.2702
58.1492
50.5505
44.6662
39.994
36.2086
33.0922
30.4949
28.3119
26.4681
24.9085
23.5922
22.4874
21.5688
20.8157
20.2119
19.7471
19.4213
19.2565
19.3257
19.8535
21.6389
28.231
58.4556
222.29
1275.15
11846.1
500
500
500
500
500
500
500
500
500
500
500
3116.83
456.772
170.22
108.478
83.3982
69.0788
59.3063
51.924
46.0047
41.0977
36.9555
33.4316
30.4329
27.8952
25.7697
24.0149
22.5908
21.4572
20.5733
19.8983
19.3936
19.024
18.7587
18.5718
18.4426
18.3547
18.296
18.2573
18.2321
18.2159
18.2049
18.1942
293.001
188.333
134.367
102.648
82.2382
68.2114
58.0798
50.4724
44.5811
39.9038
36.1152
32.9974
30.4008
28.2204
26.3808
24.827
23.5175
22.4201
21.509
20.7631
20.1663
19.7086
19.3918
19.2417
19.3436
19.9683
22.1627
31.2247
80.6946
417.548
3460.15
40783
500
500
500
500
500
500
500
500
500
500
500
6385.72
685.706
200.49
111.154
82.7929
68.1153
58.5554
51.4871
45.8548
41.1712
37.1832
33.7513
30.7948
28.2621
26.1162
24.3251
22.857
21.6774
20.7496
20.0355
19.4975
19.1007
18.814
18.6108
18.4694
18.3728
18.3079
18.2649
18.2368
18.2187
18.2064
18.1949
293.001
188.33
134.361
102.638
82.2233
68.1926
58.0576
50.4473
44.5538
39.8747
36.085
32.9667
30.3702
28.1906
26.3525
24.8006
23.4934
22.3984
21.4896
20.746
20.1511
19.6954
19.3811
19.2358
19.35
20.0215
22.4988
34.2517
117.532
948.316
13584.8
293141
500
500
500
500
500
500
500
500
500
500
500
8574.81
806.487
216.807
113.752
83.0237
67.9922
58.4241
51.4231
45.8652
41.24
37.2944
33.8871
30.941
28.408
26.2542
24.4501
22.9663
21.7699
20.8256
20.0962
19.5448
19.1366
18.8407
18.6302
18.4832
18.3825
18.3145
18.2693
18.2397
18.2205
18.2076
18.1957
293.001
188.333
134.367
102.648
82.2382
68.2114
58.0798
50.4724
44.5811
39.9038
36.1153
32.9976
30.4012
28.221
26.3818
24.8284
23.5193
22.4223
21.5114
20.7655
20.1683
19.7099
19.3919
19.2402
19.3399
19.9588
22.0969
30.5128
73.7218
367.999
3462.47
40783
500
500
500
500
500
500
500
500
500
500
500
6385.72
685.437
199.735
111.017
82.8142
68.1733
58.5988
51.5006
45.8421
41.1435
37.1524
33.7269
30.7825
28.2639
26.1312
24.3505
22.8891
21.7126
20.7847
20.0681
19.5263
19.125
18.8337
18.6263
18.4813
18.3816
18.3142
18.2694
18.24
18.2208
18.2079
18.1959
293.002
188.34
134.386
102.681
82.2847
68.2702
58.1492
50.5505
44.6662
39.9941
36.2088
33.0925
30.4956
28.313
26.4698
24.9111
23.5956
22.4915
21.5734
20.8202
20.2157
19.7494
19.4213
19.2531
19.3185
19.8409
21.5933
27.8335
54.9814
200.889
1276.69
11846.1
500
500
500
500
500
500
500
500
500
500
500
3116.83
456.51
169.528
108.344
83.3964
69.0878
59.2777
51.8531
45.9072
40.9949
36.8662
33.3687
30.4022
27.8966
25.7988
24.0645
22.6531
21.5248
20.64
19.96
19.4477
19.0694
18.7953
18.6004
18.4643
18.3708
18.3075
18.2654
18.2377
18.2196
18.2074
18.1958
293.003
188.353
134.421
102.742
82.3709
68.3788
58.2768
50.6935
44.8209
40.1566
36.3755
33.2597
30.6599
28.4712
26.6192
25.0495
23.7216
22.6043
21.6727
20.9065
20.289
19.8092
19.4646
19.2716
19.2887
19.6907
21.0438
25.5151
42.7515
120.929
548.442
3259.25
292850
500
500
500
500
500
500
500
500
500
14858.4
1197.13
285.933
152.772
107.871
85.0613
70.626
60.2917
52.3491
45.9899
40.7808
36.4615
32.8611
29.8592
27.3666
25.3135
23.6417
22.2998
21.24
20.4179
19.7919
19.324
18.9808
18.7335
18.5584
18.4366
18.3531
18.2967
18.2592
18.2345
18.2184
18.2074
18.1965
293.005
188.374
134.48
102.844
82.5141
68.5575
58.4843
50.9229
45.0648
40.4083
36.6284
33.5081
30.8986
28.6961
26.8271
25.2383
23.89
22.752
21.8003
21.0148
20.3791
19.8807
19.5148
19.2913
19.2528
19.528
20.5105
23.5846
34.3224
77.2096
268.33
1097.55
7499.59
500
500
500
500
500
500
500
500
59932.3
2990.69
516.735
227.783
145.548
108.171
86.3154
71.5621
60.7175
52.3264
45.6316
40.1974
35.7485
32.096
29.1016
26.659
24.6828
23.1018
21.8541
20.8843
20.1427
19.5852
19.1732
18.874
18.6603
18.5101
18.4062
18.3353
18.2876
18.256
18.2352
18.2216
18.2122
18.2022
293.008
188.412
134.58
103.013
82.7459
68.8406
58.8049
51.2667
45.4187
40.7606
36.9697
33.831
31.198
28.9684
27.0706
25.4525
24.0759
22.911
21.9342
21.126
20.4693
19.9503
19.5612
19.3058
19.2116
19.3669
20.0313
22.0483
28.509
51.5678
138.844
434.637
1467.01
6591.94
108004
500
500
500
500
500
22644.1
3336.31
734.147
315.739
191.437
135.97
104.684
84.4109
70.0587
59.2961
50.9145
44.2311
38.8346
34.4553
30.9015
28.0292
25.7237
23.891
22.451
21.3347
20.4819
19.8405
19.3656
19.0195
18.7711
18.5956
18.4734
18.3895
18.3327
18.2946
18.2695
18.253
18.2422
18.2346
18.2257
293.013
188.478
134.753
103.296
83.1183
69.2744
59.2708
51.7389
45.8764
41.1887
37.3587
34.1766
31.4993
29.2272
27.2902
25.6373
24.2305
23.04
22.0417
21.2154
20.5428
20.0075
19.5982
19.3159
19.1726
19.2244
19.6335
20.8892
24.6282
36.6873
77.2604
198.439
506.086
1301.45
2544.4
6801.05
17633.3
24973.1
12873.1
4416.79
1441.84
636.595
343.5
220.4
157.209
119.626
95.0494
77.8215
65.0982
55.3337
47.631
41.4544
36.4677
32.4395
29.1987
26.6104
24.5635
22.9632
21.728
20.7878
20.0825
19.5611
19.1813
18.9086
18.7156
18.5808
18.488
18.4248
18.3822
18.3539
18.3353
18.3231
18.3151
18.3092
18.3013
293.024
188.607
135.064
103.765
83.6875
69.8804
59.8612
52.2779
46.344
41.5774
37.6703
34.4188
31.684
29.3675
27.3972
25.7214
24.3007
23.1037
22.1045
21.2807
20.6117
20.0786
19.6646
19.3645
19.1832
19.1526
19.3681
20.0998
22.1699
28.2385
46.6549
97.5633
210.37
425.915
679.032
1110.16
1605.48
1615.87
1185.21
731.008
449.914
299.365
211.892
157.674
122.103
97.6777
80.1868
67.1486
57.0986
49.1369
42.717
37.505
33.2769
29.8677
27.1452
24.9964
23.3224
22.0364
21.0623
20.335
19.7994
19.4107
19.1323
18.9355
18.7981
18.7033
18.6386
18.5949
18.5657
18.5463
18.5336
18.5253
18.5198
18.5154
18.5083
293.045
188.858
135.602
104.472
84.4184
70.5332
60.3814
52.6483
46.5735
41.689
37.6892
34.3733
31.6026
29.2763
27.3167
25.6673
24.2838
23.1306
22.1779
21.3985
20.7677
20.2639
19.8688
19.5705
19.3693
19.2811
19.359
19.7458
20.8339
23.763
31.7833
52.374
95.579
167.578
246.313
331.317
385.277
356.701
301.853
245.64
196.413
157.286
127.291
104.536
87.2028
73.8504
63.3465
54.8814
47.9092
42.0905
37.2293
33.201
29.9099
27.266
25.1788
23.5589
22.3216
21.391
20.7011
20.1965
19.8327
19.5735
19.3908
19.2634
19.1753
19.1152
19.0744
19.047
19.0287
19.0166
19.0087
19.0034
18.9998
18.9966
18.9901
293.088
189.326
136.377
105.218
84.9355
70.7656
60.3504
52.4034
46.1803
41.2155
37.1899
33.893
31.1764
28.9318
27.0768
25.5469
24.2903
23.2651
22.4339
21.7639
21.2266
20.7979
20.4581
20.1943
20.0019
19.8893
19.8859
20.0656
20.6083
21.9737
25.3326
33.2126
49.0016
74.0468
102.019
127.04
139.925
135.044
123.646
111.256
99.0305
87.8041
77.9369
69.438
62.1159
55.7229
50.0286
44.8825
40.2376
36.1216
32.5762
29.6177
27.2234
25.3372
23.885
22.7882
21.9732
21.3761
20.9447
20.6365
20.4185
20.2651
20.1581
20.0842
20.0336
19.9992
19.9759
19.9602
19.9497
19.9427
19.9381
19.9349
19.9326
19.9301
19.9237
293.164
189.994
136.854
105.127
84.2881
69.7052
59.057
51.0132
44.7937
39.9067
36.0241
32.9183
30.4256
28.4249
26.8235
25.5477
24.5381
23.7433
23.1206
22.6354
22.2588
21.968
21.7458
21.5812
21.4697
21.416
21.4376
21.5738
21.9069
22.6155
24.0915
27.0984
32.6331
41.0591
50.7918
59.4123
64.3209
64.6718
63.7518
62.2576
60.3719
58.1882
55.7146
52.9109
49.748
46.2575
42.5565
38.837
35.3242
32.2015
29.5718
27.4555
25.8128
24.5726
23.6558
22.9887
22.5094
22.1696
21.9292
21.7603
21.642
21.5599
21.5036
21.4651
21.4388
21.4211
21.4091
21.401
21.3957
21.3921
21.3897
21.388
21.3866
21.3843
21.3775
293.24
189.68
135.116
102.353
81.0676
66.34
55.7737
47.991
42.1408
37.6784
34.2436
31.589
29.5376
27.959
26.754
25.8453
25.1692
24.6747
24.324
24.0882
23.9458
23.8821
23.8884
23.9619
24.1054
24.3288
24.6499
25.0976
25.7182
26.5888
27.8428
29.6965
32.4072
36.063
40.3018
44.4567
47.8488
50.503
52.6724
54.1637
54.7611
54.3214
52.7953
50.2553
46.9206
43.1248
39.2604
35.6656
32.5679
30.052
28.1013
26.6422
25.5788
24.8195
24.2834
23.9069
23.645
23.4647
23.341
23.2571
23.2006
23.163
23.1383
23.1223
23.1121
23.1058
23.1019
23.0998
23.0986
23.098
23.0978
23.0975
23.0968
23.0944
23.0861
293.474
184.575
128.042
94.9969
74.1001
60.2649
50.7388
43.9535
38.9936
35.3037
32.5329
30.4489
28.8896
27.737
26.9024
26.319
25.9325
25.7052
25.6108
25.6328
25.764
26.0055
26.3668
26.8665
27.5329
28.4053
29.5343
30.9831
32.8265
35.1496
38.0434
41.593
45.843
50.7295
56.0257
61.3387
65.9928
69.0432
70.4015
69.7955
67.2478
63.0716
57.7723
51.9806
46.295
41.1735
36.7923
33.3334
30.6903
28.7387
27.3382
26.3505
25.6683
25.2058
24.8925
24.6794
24.5407
24.4531
24.3997
24.3692
24.3532
24.3465
24.3453
24.3473
24.3509
24.355
24.3592
24.3632
24.3666
24.3696
24.372
24.3735
24.3737
24.3708
24.3604
)
;

boundaryField
{
    ibCylinder
    {
        type            immersedBoundaryOmegaWallFunction;
        patchType       immersedBoundary;
        blending        stepwise;
        setDeadValue    true;
        deadValue       500;
        value           nonuniform List<scalar> 0();
    }
    in
    {
        type            fixedValue;
        value           uniform 500;
    }
    out
    {
        type            inletOutlet;
        inletValue      uniform 500;
        value           nonuniform List<scalar> 
25
(
24.4046
23.1221
21.4094
19.954
19.0155
18.5256
18.3104
18.2288
18.202
18.195
18.1942
18.1949
18.1957
18.1959
18.1958
18.1965
18.2022
18.2257
18.3013
18.5083
18.9901
19.9237
21.3775
23.0861
24.3604
)
;
    }
    top
    {
        type            zeroGradient;
    }
    bottom
    {
        type            zeroGradient;
    }
    frontAndBack
    {
        type            empty;
    }
}


// ************************************************************************* //
