/*--------------------------------*- C++ -*----------------------------------*\
| =========                 |                                                 |
| \\      /  F ield         | OpenFOAM: The Open Source CFD Toolbox           |
|  \\    /   O peration     | Version:  2206                                  |
|   \\  /    A nd           | Website:  www.openfoam.com                      |
|    \\/     M anipulation  |                                                 |
\*---------------------------------------------------------------------------*/
FoamFile
{
    version     2.0;
    format      ascii;
    arch        "LSB;label=32;scalar=64";
    class       volScalarField;
    location    "0.7";
    object      p;
}
// * * * * * * * * * * * * * * * * * * * * * * * * * * * * * * * * * * * * * //

dimensions      [0 2 -2 0 0 0 0];

internalField   nonuniform List<scalar> 
1875
(
7.59806
7.20878
6.95796
6.86026
6.80048
6.75331
6.71886
6.69431
6.67532
6.65916
6.64442
6.63028
6.6162
6.60175
6.58658
6.5703
6.5522
6.53156
6.50751
6.47902
6.44471
6.40282
6.35116
6.28693
6.20661
6.10581
5.97911
5.81997
5.62082
5.37332
5.06919
4.70174
4.26842
3.7747
3.23644
2.67838
2.12449
1.6096
1.16568
0.803837
0.525405
0.321297
0.17779
0.0832426
0.0263944
-0.00406877
-0.0172431
-0.0189874
-0.012702
-0.00181817
0.0111468
0.0249527
0.0384497
0.0508557
0.0616222
0.0702962
0.0767954
0.0812156
0.0837095
0.0844872
0.0837529
0.0817215
0.0786042
0.0745841
0.0698247
0.0644702
0.0586407
0.0524365
0.0459388
0.0392134
0.0323124
0.0252778
0.0181425
0.0109336
0.00366981
7.22318
7.06772
6.93914
6.86188
6.80871
6.76548
6.73106
6.70516
6.6844
6.6665
6.6503
6.63499
6.62001
6.60491
6.58926
6.5726
6.55433
6.53366
6.50972
6.48152
6.44769
6.4065
6.35577
6.29272
6.21384
6.1147
5.98977
5.83227
5.63418
5.38645
5.07976
4.70607
4.26129
3.74951
3.18749
2.60305
2.03189
1.50875
1.06746
0.722339
0.469498
0.292437
0.172734
0.0948336
0.045126
0.0151725
0.000184408
-0.00423107
-0.000820153
0.00743377
0.0185109
0.0307781
0.0430585
0.0544953
0.064362
0.0722984
0.0783005
0.082396
0.0846344
0.0851953
0.0843005
0.0821382
0.0789206
0.0748227
0.0700016
0.0646
0.058735
0.0525042
0.0459869
0.0392471
0.0323356
0.0252933
0.0181528
0.0109392
0.00367381
7.04655
6.99619
6.92568
6.86707
6.81949
6.7785
6.74486
6.71755
6.69491
6.6756
6.65832
6.64213
6.62653
6.61108
6.59532
6.5788
6.56103
6.54112
6.51829
6.49165
6.45992
6.42145
6.37411
6.31518
6.24114
6.14741
6.02812
5.87585
5.68142
5.43396
5.12143
4.73244
4.25917
3.70268
3.0818
2.43542
1.80991
1.25781
0.808038
0.480879
0.272163
0.144974
0.0710152
0.0327391
0.0161361
0.00900743
0.00613648
0.00795053
0.0133131
0.0212963
0.0309818
0.0414983
0.0520335
0.0618338
0.0703216
0.0771611
0.08224
0.0855713
0.0871467
0.0871643
0.085851
0.0833296
0.0798256
0.0755183
0.0705312
0.0650005
0.0590333
0.0527242
0.0461476
0.0393628
0.0324173
0.025349
0.0181885
0.0109578
0.00367996
6.96745
6.94655
6.90161
6.85734
6.81926
6.78564
6.75569
6.72857
6.70611
6.68677
6.66861
6.6517
6.63595
6.62081
6.60563
6.59002
6.57359
6.55558
6.53526
6.51186
6.48428
6.45101
6.41013
6.35902
6.2941
6.21053
6.102
5.96
5.77338
5.52801
5.20716
4.79326
4.2711
3.63412
2.90587
2.1409
1.41521
0.820194
0.364124
0.0599988
-0.0824985
-0.133362
-0.132419
-0.103607
-0.0638201
-0.0284311
-0.0019459
0.0178781
0.032187
0.0431509
0.0524504
0.0609852
0.068906
0.0760031
0.08198
0.0866153
0.0898116
0.0915377
0.0918326
0.0908253
0.0886891
0.0855118
0.0814753
0.0767642
0.0714687
0.0657081
0.0595603
0.053112
0.0464295
0.0395644
0.0325579
0.0254431
0.0182467
0.010987
0.00368578
6.91525
6.90444
6.87694
6.8448
6.81477
6.78709
6.76151
6.73766
6.71687
6.69825
6.68018
6.66369
6.64881
6.63448
6.62003
6.60559
6.59109
6.57586
6.55922
6.54056
6.51891
6.49304
6.46126
6.42119
6.36932
6.30055
6.20803
6.08212
5.90907
5.67042
5.34211
4.89625
4.29897
3.52305
2.6073
1.64508
0.805277
0.160003
-0.294125
-0.536234
-0.59282
-0.558866
-0.458476
-0.333499
-0.209594
-0.113171
-0.0400401
0.0148213
0.0508367
0.0717227
0.0833926
0.0903715
0.0949149
0.09802
0.100065
0.101176
0.101357
0.10058
0.0988559
0.0962517
0.0928092
0.0886398
0.083848
0.07853
0.0727849
0.0666815
0.0602801
0.0536384
0.0468093
0.039833
0.0327426
0.0255643
0.0183193
0.0110229
0.00369115
6.87929
6.87311
6.85568
6.83277
6.80932
6.78652
6.76471
6.74395
6.72463
6.70714
6.69093
6.67568
6.66179
6.64872
6.63579
6.6234
6.61161
6.59991
6.58786
6.57505
6.56085
6.54445
6.52415
6.49782
6.46263
6.41372
6.34391
6.2424
6.09287
5.8715
5.54357
5.06233
4.35664
3.40616
2.31384
1.14127
0.0889647
-0.624303
-1.05874
-1.22561
-1.14202
-1.00816
-0.821049
-0.605477
-0.39556
-0.226799
-0.0995684
-0.00267615
0.0624392
0.0995584
0.118214
0.12594
0.127573
0.126182
0.123376
0.119975
0.116253
0.112224
0.107861
0.103165
0.0980772
0.09262
0.0868485
0.080775
0.0744475
0.067896
0.06117
0.0542907
0.0472816
0.0401681
0.0329734
0.0257162
0.0184105
0.0110681
0.00369715
6.85414
6.85023
6.83844
6.82169
6.80332
6.78463
6.7661
6.74808
6.73096
6.71507
6.70024
6.68621
6.6732
6.66158
6.65111
6.64157
6.63294
6.62505
6.61801
6.61175
6.60598
6.6001
6.59299
6.58331
6.56878
6.54514
6.50545
6.4385
6.32616
6.13943
5.83247
5.33127
4.56561
3.59178
2.5638
1.36939
-0.175495
-1.189
-1.68636
-1.86889
-1.63644
-1.39828
-1.12076
-0.837936
-0.571582
-0.339027
-0.158672
-0.025894
0.0659357
0.121977
0.151121
0.161939
0.161819
0.156404
0.148922
0.140897
0.132976
0.125342
0.118041
0.111035
0.10405
0.0971122
0.090254
0.0833268
0.076346
0.0693059
0.0622038
0.0550415
0.0478239
0.0405555
0.0332435
0.0258964
0.018521
0.0111245
0.00370728
6.83611
6.83337
6.82487
6.81222
6.79759
6.78211
6.76633
6.75067
6.73554
6.72121
6.70779
6.69534
6.68403
6.67407
6.66548
6.65833
6.65278
6.64902
6.64733
6.64784
6.65071
6.65584
6.66292
6.67148
6.68019
6.68592
6.6829
6.66084
6.60124
6.47233
6.22642
5.77211
5.10801
4.37549
2.47507
0
0
0
0
0
-1.69047
-1.56715
-1.26832
-0.969982
-0.685677
-0.423326
-0.203891
-0.0397135
0.0743406
0.14574
0.182096
0.194825
0.193567
0.185159
0.173749
0.161527
0.149638
0.138524
0.128357
0.119022
0.110146
0.101811
0.0938482
0.0859906
0.0783284
0.0707814
0.0632963
0.0558426
0.0484053
0.0409722
0.0335359
0.0260942
0.0186454
0.0111924
0.00372449
6.8231
6.82102
6.81453
6.8046
6.79268
6.77965
6.76602
6.75224
6.73876
6.72586
6.71378
6.70271
6.69288
6.68449
6.67776
6.67293
6.67041
6.6706
6.6739
6.68084
6.69198
6.70794
6.72923
6.7563
6.78908
6.82632
6.86452
6.89594
6.90408
6.8592
6.69393
6.31166
5.78963
0
0
0
0
0
0
0
0
-1.53543
-1.29861
-1.00229
-0.718883
-0.456675
-0.227451
-0.0454602
0.0845069
0.16661
0.209313
0.224202
0.222211
0.211032
0.195868
0.179883
0.164612
0.150608
0.137892
0.126341
0.115873
0.106287
0.0972335
0.0885615
0.080273
0.0722329
0.0643592
0.0566247
0.0489768
0.0413845
0.0338271
0.0262927
0.0187719
0.0112627
0.00374472
6.81389
6.81221
6.80698
6.79883
6.78879
6.77753
6.76552
6.7532
6.74101
6.72929
6.71833
6.7084
6.6998
6.69282
6.68777
6.685
6.68502
6.68853
6.69616
6.70873
6.72724
6.75289
6.78703
6.83115
6.8867
6.95464
7.0346
7.12319
7.21037
7.27454
7.23393
6.98345
6.68177
0
0
0
0
0
0
0
0
0
-1.30433
-1.02302
-0.731041
-0.46684
-0.234097
-0.0446651
0.0935122
0.182186
0.229506
0.246615
0.244387
0.231401
0.213737
0.195031
0.177099
0.160681
0.14589
0.132641
0.120788
0.110031
0.100109
0.0908058
0.0819802
0.0735137
0.0653146
0.0573223
0.049486
0.0417542
0.0340898
0.026473
0.0188876
0.0113267
0.00376438
6.80775
6.80632
6.80185
6.79481
6.786
6.77594
6.76506
6.75376
6.7425
6.73166
6.72154
6.71246
6.70479
6.69887
6.69513
6.69399
6.69596
6.70197
6.71293
6.72989
6.7542
6.78752
6.83193
6.8899
6.9643
7.05819
7.17435
7.31405
7.47405
7.63913
7.76065
7.85198
0
0
0
0
0
0
0
0
0
0
0
-1.00538
-0.732959
-0.466877
-0.233126
-0.0407789
0.101507
0.193906
0.243798
0.262217
0.259799
0.245646
0.22643
0.205959
0.186219
0.168119
0.151882
0.137424
0.124547
0.112926
0.102289
0.0924722
0.0832743
0.0745144
0.0660705
0.0578747
0.0498875
0.042045
0.0342977
0.0266164
0.0189794
0.0113768
0.00378023
6.80424
6.80293
6.79887
6.79245
6.78432
6.77496
6.76474
6.75406
6.74336
6.73305
6.72345
6.7149
6.70779
6.70254
6.6996
6.69952
6.70281
6.71034
6.72336
6.74311
6.7711
6.80935
6.8604
6.9274
7.01422
7.12545
7.26614
7.44106
7.65186
7.8899
8.14301
8.51278
0
0
0
0
0
0
0
0
0
0
0
-0.974776
-0.735459
-0.463824
-0.229357
-0.0354424
0.108375
0.202148
0.253024
0.271853
0.269471
0.254455
0.234112
0.212585
0.191784
0.172688
0.155577
0.140378
0.126861
0.114723
0.103698
0.0935554
0.0840829
0.0751184
0.0665417
0.058237
0.0501441
0.0422283
0.0344298
0.0267066
0.0190367
0.0114077
0.00378953
6.80309
6.80184
6.7979
6.79167
6.78377
6.77463
6.76462
6.75415
6.74365
6.73351
6.72408
6.71571
6.7088
6.70375
6.70108
6.70137
6.70518
6.71321
6.72691
6.74759
6.77686
6.81681
6.87014
6.94028
7.03143
7.14872
7.29802
7.48531
7.71389
7.97805
8.27195
8.64702
0
0
0
0
0
0
0
0
0
0
0
-0.95316
-0.73253
-0.463616
-0.227529
-0.0329021
0.111322
0.205409
0.256487
0.275222
0.273042
0.257668
0.236722
0.214808
0.193657
0.174229
0.156826
0.141378
0.127648
0.115341
0.104181
0.0939239
0.0843626
0.0753277
0.0667045
0.0583588
0.0502312
0.0422938
0.034475
0.0267361
0.0190555
0.0114197
0.00379438
6.80424
6.80294
6.79888
6.79246
6.78433
6.77496
6.76474
6.75407
6.74337
6.73306
6.72346
6.71491
6.7078
6.70254
6.69961
6.69953
6.70282
6.71034
6.72337
6.74311
6.77111
6.80936
6.8604
6.92741
7.01423
7.12546
7.26615
7.44108
7.65187
7.88992
8.14303
8.51281
0
0
0
0
0
0
0
0
0
0
0
-0.974776
-0.735447
-0.463812
-0.229347
-0.0354317
0.108386
0.202155
0.253035
0.271856
0.269475
0.254461
0.234112
0.212588
0.191788
0.17269
0.15558
0.140381
0.126863
0.114725
0.1037
0.0935581
0.0840853
0.0751206
0.0665435
0.0582386
0.0501457
0.0422297
0.0344311
0.0267077
0.0190375
0.0114083
0.00378972
6.80777
6.80634
6.80187
6.79483
6.78601
6.77595
6.76507
6.75378
6.74252
6.73167
6.72155
6.71248
6.7048
6.69889
6.69515
6.694
6.69597
6.70199
6.71294
6.72991
6.75421
6.78753
6.83194
6.88992
6.96431
7.0582
7.17437
7.31407
7.47407
7.63915
7.76068
7.85202
0
0
0
0
0
0
0
0
0
0
0
-1.00534
-0.732925
-0.466848
-0.233104
-0.0407585
0.101525
0.193922
0.243811
0.262227
0.259809
0.245652
0.226435
0.205963
0.186226
0.168124
0.151887
0.137429
0.124552
0.112931
0.102294
0.0924774
0.0832792
0.0745186
0.0660742
0.0578781
0.0498907
0.0420479
0.0343003
0.0266186
0.018981
0.0113778
0.00378058
6.81391
6.81224
6.80701
6.79885
6.78881
6.77755
6.76555
6.75322
6.74103
6.72932
6.71836
6.70843
6.69982
6.69284
6.68779
6.68502
6.68504
6.68855
6.69618
6.70875
6.72726
6.75291
6.78705
6.83117
6.88672
6.95467
7.03463
7.12322
7.2104
7.27457
7.23397
6.9835
6.68181
0
0
0
0
0
0
0
0
0
-1.30425
-1.02295
-0.730985
-0.466797
-0.234063
-0.0446372
0.0935375
0.182207
0.229523
0.246629
0.244397
0.231412
0.213745
0.195039
0.177109
0.160689
0.145898
0.132649
0.120796
0.110039
0.100117
0.0908137
0.0819874
0.0735202
0.0653203
0.0573275
0.0494907
0.0417585
0.0340937
0.0264763
0.01889
0.0113282
0.00376489
6.82313
6.82105
6.81456
6.80463
6.79271
6.77968
6.76605
6.75227
6.73878
6.72589
6.71381
6.70274
6.69291
6.68452
6.67779
6.67295
6.67044
6.67063
6.67393
6.68086
6.69201
6.70796
6.72926
6.75633
6.78912
6.82635
6.86455
6.89598
6.90412
6.85924
6.69397
6.31169
5.78965
0
0
0
0
0
0
0
0
-1.53533
-1.29851
-1.00221
-0.718812
-0.456617
-0.227404
-0.0454213
0.0845394
0.166637
0.209335
0.224221
0.222226
0.211049
0.195881
0.179896
0.164625
0.15062
0.137904
0.126352
0.115884
0.106298
0.0972447
0.0885722
0.0802829
0.0722418
0.0643671
0.0566317
0.0489831
0.0413903
0.0338322
0.026297
0.0187752
0.0112646
0.00374537
6.83614
6.8334
6.82491
6.81226
6.79763
6.78215
6.76636
6.75071
6.73557
6.72125
6.70782
6.69537
6.68407
6.6741
6.66551
6.65836
6.65281
6.64906
6.64736
6.64788
6.65074
6.65587
6.66295
6.67151
6.68023
6.68596
6.68294
6.66088
6.60129
6.47238
6.22646
5.77215
5.10802
4.37545
2.47409
0
0
0
0
0
-1.69042
-1.56709
-1.26824
-0.969905
-0.6856
-0.423262
-0.203836
-0.0396647
0.0743818
0.145775
0.182124
0.19485
0.193588
0.18518
0.173768
0.161545
0.149655
0.138541
0.128372
0.119037
0.110161
0.101825
0.0938624
0.086004
0.0783409
0.0707926
0.0633063
0.0558515
0.0484133
0.0409794
0.0335423
0.0260994
0.0186493
0.0111948
0.00372528
6.85418
6.85027
6.83849
6.82173
6.80336
6.78468
6.76614
6.74812
6.731
6.71511
6.70028
6.68625
6.67324
6.66162
6.65115
6.64161
6.63298
6.62509
6.61805
6.61179
6.60602
6.60014
6.59303
6.58335
6.56882
6.54519
6.5055
6.43855
6.32621
6.13948
5.83252
5.33132
4.56566
3.59183
2.56386
1.36939
-0.17544
-1.18893
-1.68631
-1.86887
-1.63641
-1.39823
-1.1207
-0.837867
-0.57151
-0.338966
-0.158621
-0.0258445
0.0659833
0.122015
0.151154
0.161968
0.161847
0.156429
0.148945
0.140919
0.132998
0.125362
0.118061
0.111054
0.104068
0.09713
0.0902711
0.0833431
0.076361
0.0693195
0.0622159
0.0550523
0.0478335
0.0405641
0.0332509
0.0259025
0.0185256
0.0111273
0.00370819
6.87934
6.87316
6.85572
6.83282
6.80937
6.78656
6.76475
6.74399
6.72468
6.70718
6.69098
6.67572
6.66184
6.64877
6.63584
6.62344
6.61166
6.59996
6.5879
6.5751
6.5609
6.5445
6.52419
6.49787
6.46268
6.41377
6.34397
6.24246
6.09292
5.87156
5.54363
5.06238
4.35666
3.40622
2.3139
1.1413
0.0890006
-0.624297
-1.05876
-1.22562
-1.142
-1.00811
-0.820986
-0.605411
-0.395499
-0.226736
-0.0995137
-0.00262869
0.0624846
0.0995972
0.11825
0.125973
0.127604
0.126212
0.123405
0.120002
0.11628
0.112249
0.107886
0.103188
0.0980996
0.0926412
0.0868685
0.0807939
0.0744649
0.0679119
0.0611843
0.0543034
0.0472929
0.040178
0.0329819
0.0257231
0.0184157
0.0110712
0.00369818
6.9153
6.90449
6.87699
6.84485
6.81482
6.78714
6.76156
6.73771
6.71692
6.6983
6.68023
6.66374
6.64887
6.63454
6.62008
6.60564
6.59114
6.57591
6.55928
6.54062
6.51897
6.49309
6.46131
6.42125
6.36938
6.30061
6.20809
6.08218
5.90914
5.67047
5.34217
4.89631
4.29902
3.52312
2.60737
1.64512
0.805289
0.159992
-0.294134
-0.536208
-0.592778
-0.558816
-0.458389
-0.333405
-0.209521
-0.113097
-0.0399768
0.0148762
0.0508852
0.0717683
0.0834337
0.0904097
0.0949516
0.0980555
0.1001
0.101208
0.101388
0.10061
0.0988847
0.0962792
0.0928351
0.0886643
0.0838708
0.0785515
0.0728046
0.0666994
0.0602963
0.0536528
0.0468219
0.0398441
0.032752
0.0255719
0.0183249
0.0110264
0.00369226
6.96751
6.9466
6.90167
6.8574
6.81932
6.78569
6.75574
6.72862
6.70617
6.68682
6.66867
6.65176
6.63601
6.62086
6.60569
6.59007
6.57365
6.55564
6.53531
6.51192
6.48433
6.45107
6.41019
6.35908
6.29416
6.2106
6.10206
5.96007
5.77344
5.52807
5.20722
4.79332
4.27116
3.6342
2.90596
2.14098
1.41528
0.820271
0.364192
0.0600842
-0.0823986
-0.133257
-0.132306
-0.103494
-0.0637186
-0.0283418
-0.00186785
0.0179448
0.0322465
0.0432055
0.0525004
0.0610314
0.0689497
0.0760449
0.0820201
0.0866536
0.089848
0.0915722
0.0918653
0.0908562
0.0887182
0.0855388
0.0815006
0.0767877
0.0714902
0.0657277
0.059578
0.0531277
0.0464434
0.0395764
0.032568
0.0254512
0.0182527
0.0109906
0.00368697
7.04661
6.99625
6.92574
6.86713
6.81955
6.77855
6.74492
6.71761
6.69497
6.67565
6.65838
6.64218
6.62659
6.61114
6.59538
6.57886
6.56109
6.54118
6.51835
6.49171
6.45998
6.42151
6.37417
6.31524
6.2412
6.14747
6.02819
5.87592
5.68149
5.43403
5.1215
4.7325
4.25923
3.70275
3.08188
2.43551
1.81001
1.25792
0.808146
0.480995
0.27229
0.14511
0.0711477
0.0328616
0.0162452
0.00910254
0.00621984
0.00802564
0.0133823
0.0213585
0.0310387
0.0415509
0.052083
0.0618809
0.0703664
0.0772036
0.0822805
0.0856091
0.0871821
0.0871976
0.0858823
0.0833587
0.0798528
0.0755432
0.0705539
0.0650213
0.0590521
0.0527409
0.0461624
0.0393755
0.0324279
0.0253575
0.0181947
0.0109616
0.0036812
7.22324
7.06778
6.9392
6.86194
6.80877
6.76554
6.73112
6.70522
6.68446
6.66656
6.65036
6.63505
6.62007
6.60497
6.58932
6.57266
6.5544
6.53372
6.50978
6.48158
6.44775
6.40656
6.35583
6.29278
6.21391
6.11477
5.98984
5.83234
5.63425
5.38652
5.07982
4.70614
4.26135
3.74957
3.18756
2.60313
2.03198
1.50886
1.06758
0.722459
0.469628
0.292569
0.172861
0.094951
0.0452302
0.0152652
0.000266944
-0.00415358
-0.000747074
0.00750102
0.0185729
0.0308354
0.043112
0.0545459
0.0644098
0.0723434
0.078343
0.0824358
0.0846715
0.0852301
0.084333
0.0821685
0.0789488
0.0748485
0.0700251
0.0646214
0.0587543
0.0525215
0.0460022
0.0392602
0.0323465
0.0253019
0.018159
0.010943
0.00367509
7.59812
7.20884
6.95802
6.86032
6.80054
6.75337
6.71892
6.69437
6.67539
6.65922
6.64448
6.63034
6.61626
6.60181
6.58664
6.57036
6.55226
6.53162
6.50757
6.47908
6.44477
6.40289
6.35122
6.28699
6.20667
6.10588
5.97917
5.82004
5.62089
5.37338
5.06926
4.7018
4.26848
3.77476
3.23651
2.67845
2.12457
1.6097
1.16579
0.803953
0.52553
0.321423
0.177913
0.0833575
0.0264994
-0.00397067
-0.0171529
-0.0189027
-0.012623
-0.00174828
0.0112107
0.0250111
0.0385043
0.0509066
0.0616705
0.0703419
0.0768388
0.081256
0.0837474
0.0845225
0.083786
0.0817522
0.0786327
0.0746102
0.0698486
0.0644918
0.0586603
0.052454
0.0459543
0.0392267
0.0323235
0.0252864
0.0181488
0.0109375
0.00367113
)
;

boundaryField
{
    ibCylinder
    {
        type            zeroGradientIb;
        patchType       immersedBoundary;
        setDeadValue    true;
        deadValue       0;
        value           nonuniform List<scalar> 0();
    }
    in
    {
        type            zeroGradient;
    }
    out
    {
        type            fixedValue;
        value           uniform 0;
    }
    top
    {
        type            zeroGradient;
    }
    bottom
    {
        type            zeroGradient;
    }
    frontAndBack
    {
        type            empty;
    }
}


// ************************************************************************* //
