/*--------------------------------*- C++ -*----------------------------------*\
| =========                 |                                                 |
| \\      /  F ield         | OpenFOAM: The Open Source CFD Toolbox           |
|  \\    /   O peration     | Version:  2206                                  |
|   \\  /    A nd           | Website:  www.openfoam.com                      |
|    \\/     M anipulation  |                                                 |
\*---------------------------------------------------------------------------*/
FoamFile
{
    version     2.0;
    format      ascii;
    arch        "LSB;label=32;scalar=64";
    class       volVectorField;
    location    "0.7";
    object      U;
}
// * * * * * * * * * * * * * * * * * * * * * * * * * * * * * * * * * * * * * //

dimensions      [0 1 -1 0 0 0 0];

internalField   nonuniform List<vector> 
1875
(
(0.792654 0.0207488 0)
(0.749543 0.0857688 0)
(0.648239 0.0835174 0)
(0.515303 0.0487143 0)
(0.419185 0.0246397 0)
(0.356084 0.0133579 0)
(0.31209 0.00730764 0)
(0.280542 0.00388313 0)
(0.25804 0.00203782 0)
(0.241847 0.001059 0)
(0.230038 0.000502775 0)
(0.221428 0.000151414 0)
(0.215347 -0.000120607 0)
(0.211411 -0.000387663 0)
(0.209498 -0.000669929 0)
(0.209572 -0.000994882 0)
(0.211323 -0.00140783 0)
(0.215008 -0.0018949 0)
(0.220905 -0.00247132 0)
(0.229247 -0.00318387 0)
(0.240428 -0.00406931 0)
(0.254981 -0.00516959 0)
(0.273588 -0.00653549 0)
(0.297107 -0.00822142 0)
(0.326571 -0.0102787 0)
(0.363166 -0.0127375 0)
(0.408162 -0.0155902 0)
(0.462795 -0.0187584 0)
(0.528052 -0.0220429 0)
(0.604343 -0.025069 0)
(0.691027 -0.0272253 0)
(0.785787 -0.0276514 0)
(0.884085 -0.0252095 0)
(0.97903 -0.0186387 0)
(1.06044 -0.00780621 0)
(1.11754 0.00594954 0)
(1.13433 0.0195317 0)
(1.11659 0.0346587 0)
(1.05889 0.0444953 0)
(0.968306 0.0495216 0)
(0.854932 0.0476386 0)
(0.731812 0.0405724 0)
(0.612113 0.0320954 0)
(0.506599 0.0226384 0)
(0.417344 0.0146865 0)
(0.346015 0.00862568 0)
(0.29014 0.00634345 0)
(0.251187 0.00515102 0)
(0.220814 0.0017652 0)
(0.199545 0.000935448 0)
(0.185657 0.000406729 0)
(0.176695 -0.000252173 0)
(0.171572 -0.000576475 0)
(0.169293 -0.000834296 0)
(0.168927 -0.00106025 0)
(0.169719 -0.0011089 0)
(0.171184 -0.00104143 0)
(0.172948 -0.000944789 0)
(0.174821 -0.000823909 0)
(0.176659 -0.000716707 0)
(0.17835 -0.000609312 0)
(0.179854 -0.000508766 0)
(0.181154 -0.00041866 0)
(0.182256 -0.000340536 0)
(0.183174 -0.000273705 0)
(0.183926 -0.000217899 0)
(0.184536 -0.000171956 0)
(0.185024 -0.000134566 0)
(0.185411 -0.000104414 0)
(0.185716 -8.01734e-05 0)
(0.185952 -6.07383e-05 0)
(0.186133 -4.50799e-05 0)
(0.186268 -3.22698e-05 0)
(0.186365 -2.12415e-05 0)
(0.186439 -1.55178e-05 0)
(1.01389 0.122207 0)
(1.05105 0.187629 0)
(1.03813 0.178818 0)
(0.989045 0.157876 0)
(0.924754 0.129171 0)
(0.856907 0.0978804 0)
(0.795921 0.0718513 0)
(0.74267 0.0524304 0)
(0.698048 0.0385039 0)
(0.66166 0.0284513 0)
(0.632506 0.0209829 0)
(0.609553 0.015218 0)
(0.591927 0.0104834 0)
(0.579022 0.00631055 0)
(0.570465 0.00243097 0)
(0.566072 -0.00119898 0)
(0.565552 -0.00462973 0)
(0.568871 -0.00852352 0)
(0.576341 -0.0128039 0)
(0.588237 -0.0176332 0)
(0.60503 -0.023237 0)
(0.627399 -0.0298676 0)
(0.65624 -0.0378091 0)
(0.692697 -0.047354 0)
(0.738152 -0.0587733 0)
(0.794197 -0.0722569 0)
(0.862559 -0.0878487 0)
(0.944975 -0.105329 0)
(1.04298 -0.12404 0)
(1.15755 -0.14271 0)
(1.28866 -0.15921 0)
(1.43456 -0.170473 0)
(1.59094 -0.172516 0)
(1.75068 -0.160602 0)
(1.90301 -0.130429 0)
(2.03182 -0.0812383 0)
(2.12309 -0.0160214 0)
(2.15846 0.0494122 0)
(2.14109 0.112265 0)
(2.06766 0.166158 0)
(1.94387 0.20149 0)
(1.78127 0.215458 0)
(1.59419 0.210023 0)
(1.39789 0.189287 0)
(1.20752 0.159083 0)
(1.03831 0.126518 0)
(0.895759 0.0968746 0)
(0.781701 0.0718151 0)
(0.693823 0.0514817 0)
(0.628568 0.0356558 0)
(0.581691 0.0235853 0)
(0.549051 0.0145656 0)
(0.527283 0.00804372 0)
(0.513473 0.00345741 0)
(0.505216 0.000460121 0)
(0.500899 -0.00135928 0)
(0.499281 -0.00240276 0)
(0.49935 -0.00288706 0)
(0.500341 -0.0030427 0)
(0.501854 -0.00294066 0)
(0.503506 -0.00268833 0)
(0.50517 -0.002373 0)
(0.506731 -0.00204292 0)
(0.508128 -0.00172503 0)
(0.509339 -0.00143125 0)
(0.510363 -0.00117119 0)
(0.511216 -0.000946913 0)
(0.511915 -0.000757381 0)
(0.51248 -0.00059958 0)
(0.512931 -0.000469321 0)
(0.513287 -0.000362325 0)
(0.513563 -0.000274395 0)
(0.513772 -0.000201692 0)
(0.513924 -0.000140471 0)
(0.514043 -8.67073e-05 0)
(1.01268 0.0739289 0)
(1.05986 0.148308 0)
(1.09689 0.166702 0)
(1.1092 0.163815 0)
(1.10285 0.155149 0)
(1.08535 0.140346 0)
(1.05916 0.120446 0)
(1.02693 0.0994845 0)
(0.992855 0.0806943 0)
(0.960455 0.0647679 0)
(0.9313 0.0513838 0)
(0.906013 0.0400234 0)
(0.884744 0.0300389 0)
(0.867619 0.0209168 0)
(0.854711 0.012341 0)
(0.84603 0.00411438 0)
(0.841625 -0.00384222 0)
(0.841458 -0.0120989 0)
(0.845808 -0.0210515 0)
(0.854954 -0.0309005 0)
(0.869322 -0.0420288 0)
(0.889521 -0.0548956 0)
(0.916355 -0.070041 0)
(0.950914 -0.0880269 0)
(0.994478 -0.109365 0)
(1.04863 -0.134442 0)
(1.11523 -0.163468 0)
(1.19633 -0.196254 0)
(1.29408 -0.231901 0)
(1.41044 -0.268523 0)
(1.54676 -0.302747 0)
(1.70307 -0.329546 0)
(1.87747 -0.341987 0)
(2.06406 -0.330959 0)
(2.25025 -0.288688 0)
(2.41985 -0.211149 0)
(2.548 -0.105224 0)
(2.62651 0.0181386 0)
(2.64445 0.132225 0)
(2.60513 0.239007 0)
(2.51248 0.322283 0)
(2.37679 0.375447 0)
(2.20766 0.397493 0)
(2.01498 0.390625 0)
(1.81125 0.359451 0)
(1.60776 0.309278 0)
(1.4214 0.254698 0)
(1.25901 0.20053 0)
(1.12524 0.151723 0)
(1.01994 0.110818 0)
(0.940156 0.0781395 0)
(0.881635 0.0529522 0)
(0.839998 0.0341435 0)
(0.811257 0.0205581 0)
(0.792095 0.0110588 0)
(0.779857 0.00463798 0)
(0.772471 0.000509257 0)
(0.76835 -0.00198136 0)
(0.766364 -0.00328243 0)
(0.765755 -0.00381634 0)
(0.765972 -0.00386384 0)
(0.766618 -0.00367273 0)
(0.767457 -0.00332722 0)
(0.76835 -0.00290338 0)
(0.769221 -0.0024653 0)
(0.770016 -0.00205797 0)
(0.770715 -0.00169244 0)
(0.771311 -0.00137365 0)
(0.771809 -0.00110122 0)
(0.772218 -0.000871705 0)
(0.772547 -0.000679962 0)
(0.772807 -0.000520376 0)
(0.773009 -0.000386919 0)
(0.773157 -0.000275835 0)
(0.773281 -0.000167793 0)
(1.00547 0.0376096 0)
(1.03482 0.0953742 0)
(1.07828 0.131076 0)
(1.11196 0.145918 0)
(1.13121 0.147254 0)
(1.144 0.140338 0)
(1.14562 0.129745 0)
(1.14104 0.118041 0)
(1.13133 0.105024 0)
(1.1182 0.0904021 0)
(1.10293 0.0755687 0)
(1.08712 0.0617496 0)
(1.0719 0.0487857 0)
(1.0582 0.0363541 0)
(1.0467 0.0242925 0)
(1.03775 0.0123899 0)
(1.03169 0.000414463 0)
(1.02887 -0.0120051 0)
(1.02964 -0.0254081 0)
(1.03438 -0.0401224 0)
(1.04357 -0.0566345 0)
(1.05777 -0.0755348 0)
(1.07765 -0.0976014 0)
(1.10437 -0.123615 0)
(1.13891 -0.154418 2.73931e-33)
(1.18303 -0.190734 -2.68888e-33)
(1.23882 -0.233145 0)
(1.30891 -0.281791 0)
(1.39641 -0.335956 0)
(1.50486 -0.393812 0)
(1.63777 -0.451103 0)
(1.79832 -0.501593 0)
(1.98997 -0.534613 0)
(2.20558 -0.532974 0)
(2.42321 -0.482235 0)
(2.61383 -0.375176 0)
(2.75108 -0.219939 0)
(2.8493 -0.0455558 0)
(2.85429 0.137576 0)
(2.82151 0.30011 0)
(2.74011 0.42744 0)
(2.624 0.520369 0)
(2.48273 0.574456 0)
(2.32112 0.588893 0)
(2.14515 0.56707 0)
(1.96261 0.517188 0)
(1.78057 0.448336 0)
(1.60791 0.369761 0)
(1.45503 0.291857 0)
(1.32681 0.221679 0)
(1.22409 0.162654 0)
(1.14486 0.11538 0)
(1.08568 0.0789522 0)
(1.0427 0.0518112 0)
(1.01227 0.0322255 0)
(0.991247 0.018535 0)
(0.977085 0.00928909 0)
(0.967816 0.00331313 0)
(0.961975 -0.000352673 0)
(0.958472 -0.00243911 0)
(0.956551 -0.00348934 0)
(0.955571 -0.00379626 0)
(0.955234 -0.00371699 0)
(0.955248 -0.00345895 0)
(0.955458 -0.00306989 0)
(0.955774 -0.00264347 0)
(0.956124 -0.00222417 0)
(0.956466 -0.00183831 0)
(0.956776 -0.0014964 0)
(0.957048 -0.00119997 0)
(0.957278 -0.000946688 0)
(0.957466 -0.000732184 0)
(0.957618 -0.000550015 0)
(0.957731 -0.000399767 0)
(0.957832 -0.000242702 0)
(1.00294 0.0232609 0)
(1.0194 0.064886 0)
(1.04994 0.0953408 0)
(1.08335 0.114415 0)
(1.11198 0.123666 0)
(1.13478 0.125203 0)
(1.15114 0.121852 0)
(1.16162 0.114598 0)
(1.16908 0.103917 0)
(1.17103 0.0929425 0)
(1.17013 0.0827077 0)
(1.167 0.0716678 0)
(1.16232 0.0598254 0)
(1.15689 0.0468919 0)
(1.15118 0.0333165 0)
(1.14573 0.0194975 0)
(1.14112 0.00519584 0)
(1.13796 -0.00994552 0)
(1.13681 -0.026373 0)
(1.13813 -0.0445986 0)
(1.14245 -0.0652004 0)
(1.15034 -0.0887782 0)
(1.16198 -0.116498 0)
(1.17901 -0.149102 0)
(1.20206 -0.187754 0)
(1.23344 -0.234192 0)
(1.27538 -0.289423 0)
(1.33104 -0.354232 0)
(1.40474 -0.428733 0)
(1.50225 -0.511527 0)
(1.63 -0.598615 0)
(1.79744 -0.684895 0)
(2.01433 -0.754173 0)
(2.24961 -0.774194 0)
(2.4676 -0.719703 0)
(2.63087 -0.57171 0)
(2.75534 -0.348635 0)
(2.78492 -0.0991341 0)
(2.7682 0.144825 0)
(2.71437 0.353551 0)
(2.63669 0.504964 0)
(2.5443 0.615087 0)
(2.44845 0.687003 0)
(2.32887 0.719747 0)
(2.19545 0.711662 0)
(2.05368 0.669736 0)
(1.90702 0.605734 0)
(1.7619 0.524476 0)
(1.62506 0.433095 0)
(1.50409 0.342877 0)
(1.40134 0.261287 0)
(1.31736 0.192336 0)
(1.25111 0.137048 0)
(1.20045 0.0945092 0)
(1.1627 0.0628922 0)
(1.13519 0.0400988 0)
(1.11555 0.0241219 0)
(1.10182 0.0132673 0)
(1.09242 0.00615884 0)
(1.08611 0.00168561 0)
(1.08197 -0.000946111 0)
(1.07934 -0.00234685 0)
(1.07774 -0.00297708 0)
(1.07679 -0.00312359 0)
(1.07627 -0.00298615 0)
(1.07602 -0.00272873 0)
(1.07593 -0.00238426 0)
(1.07595 -0.00202611 0)
(1.07601 -0.00168503 0)
(1.0761 -0.00137501 0)
(1.0762 -0.00110064 0)
(1.07629 -0.000861989 0)
(1.07637 -0.00065465 0)
(1.07643 -0.000481188 0)
(1.07649 -0.000293535 0)
(1.00169 0.0156863 0)
(1.01146 0.0453471 0)
(1.03155 0.0692067 0)
(1.05669 0.0860202 0)
(1.08239 0.0965635 0)
(1.10651 0.101849 0)
(1.12801 0.102867 0)
(1.14614 0.100279 0)
(1.16069 0.0948381 0)
(1.17134 0.087758 0)
(1.17913 0.0795078 0)
(1.18459 0.069568 0)
(1.18852 0.0584063 0)
(1.1899 0.0469772 0)
(1.18998 0.0352556 0)
(1.18915 0.0224861 0)
(1.18767 0.00823055 0)
(1.186 -0.00761822 0)
(1.18457 -0.025383 0)
(1.1838 -0.0455804 0)
(1.18416 -0.0686477 0)
(1.18629 -0.0946577 0)
(1.19023 -0.125513 0)
(1.19786 -0.163258 0)
(1.2099 -0.208614 0)
(1.2282 -0.263448 0)
(1.25507 -0.329978 0)
(1.29416 -0.410328 0)
(1.3508 -0.506312 0)
(1.43293 -0.618817 0)
(1.55081 -0.746413 0)
(1.72259 -0.889485 0)
(1.94309 -1.0067 0)
(2.11821 -1.02046 0)
(2.26751 -0.916832 0)
(2.28874 -0.716377 0)
(2.19798 -0.420298 0)
(2.0937 -0.0903105 0)
(2.04021 0.194901 0)
(2.04417 0.430789 0)
(2.06564 0.591404 0)
(2.08829 0.715355 0)
(2.08503 0.786076 0)
(2.05666 0.838535 0)
(2.00306 0.836009 0)
(1.93254 0.804594 0)
(1.84681 0.739447 0)
(1.74897 0.64975 0)
(1.64767 0.548391 0)
(1.5506 0.44504 0)
(1.46479 0.349645 0)
(1.39205 0.266079 0)
(1.3323 0.19635 0)
(1.28448 0.14064 0)
(1.24709 0.0977885 0)
(1.21851 0.0658968 0)
(1.19712 0.0428105 0)
(1.18146 0.0265517 0)
(1.17021 0.0154426 0)
(1.16226 0.00804194 0)
(1.15674 0.00332213 0)
(1.15298 0.000472468 0)
(1.15042 -0.00115117 0)
(1.14872 -0.00196794 0)
(1.1476 -0.00227884 0)
(1.14688 -0.00229525 0)
(1.14642 -0.00214628 0)
(1.14614 -0.00191493 0)
(1.14597 -0.0016498 0)
(1.14588 -0.0013818 0)
(1.14584 -0.00112832 0)
(1.14583 -0.000897787 0)
(1.14583 -0.000690546 0)
(1.14583 -0.000512118 0)
(1.14584 -0.000313476 0)
(1.00107 0.0110077 0)
(1.00738 0.032397 0)
(1.02105 0.0505923 0)
(1.0394 0.0644097 0)
(1.0597 0.073932 0)
(1.08034 0.0796504 0)
(1.10051 0.0821741 0)
(1.11943 0.0819299 0)
(1.13644 0.0793415 0)
(1.15106 0.0749937 0)
(1.1635 0.069235 0)
(1.1738 0.062155 0)
(1.18182 0.0539082 0)
(1.18793 0.0445536 0)
(1.19191 0.0339107 0)
(1.19442 0.0219112 0)
(1.19536 0.00832001 0)
(1.19515 -0.00696534 0)
(1.1941 -0.0242959 0)
(1.19217 -0.0443243 0)
(1.18975 -0.0676526 0)
(1.18713 -0.0950166 0)
(1.18518 -0.128096 0)
(1.18426 -0.168386 0)
(1.18491 -0.217419 0)
(1.18872 -0.27812 0)
(1.19794 -0.353683 0)
(1.21619 -0.44786 0)
(1.24918 -0.564912 0)
(1.30601 -0.709437 0)
(1.40047 -0.885583 0)
(1.54822 -1.09036 0)
(1.68494 -1.17214 0)
(1.64101 -1.09671 0)
(1.40524 -0.76421 0)
(1.0093 -0.337547 0)
(0.572502 -0.0477583 9.95512e-18)
(0.306421 0.0350663 0)
(0.454442 0.0761748 -5.77898e-17)
(0.688742 0.156742 0)
(0.815009 0.36666 -2.05426e-19)
(1.10375 0.576715 0)
(1.31358 0.715753 0)
(1.46153 0.802312 0)
(1.54854 0.829657 0)
(1.58633 0.824395 0)
(1.59369 0.792055 0)
(1.57438 0.721828 0)
(1.53513 0.628531 0)
(1.48551 0.524283 0)
(1.43292 0.419218 0)
(1.38389 0.324689 0)
(1.3409 0.244629 0)
(1.30463 0.179708 0)
(1.27511 0.128914 0)
(1.25174 0.0901428 0)
(1.23357 0.0612063 0)
(1.21969 0.0402024 0)
(1.20929 0.0254173 0)
(1.20164 0.0151932 0)
(1.19614 0.00835282 0)
(1.19221 0.00398568 0)
(1.18941 0.00127194 0)
(1.18743 -0.00030219 0)
(1.18604 -0.00114466 0)
(1.18506 -0.00152955 0)
(1.18439 -0.00163317 0)
(1.18392 -0.00157408 0)
(1.1836 -0.00142812 0)
(1.18337 -0.00124157 0)
(1.18323 -0.00104207 0)
(1.18313 -0.000846351 0)
(1.18306 -0.000660839 0)
(1.18302 -0.000495306 0)
(1.18298 -0.000303896 0)
(1.00075 0.00789351 0)
(1.00518 0.0234245 0)
(1.01505 0.0371208 0)
(1.02877 0.0479793 0)
(1.04466 0.0558781 0)
(1.06162 0.0610476 0)
(1.0789 0.0637838 0)
(1.0959 0.0643909 0)
(1.11206 0.0631705 0)
(1.12701 0.0604787 0)
(1.14051 0.0565294 0)
(1.15245 0.0513312 0)
(1.16254 0.0449625 0)
(1.17078 0.0374614 0)
(1.17715 0.0288272 0)
(1.18169 0.0187805 0)
(1.18429 0.00711117 0)
(1.18495 -0.00651844 0)
(1.18373 -0.0224872 0)
(1.18065 -0.0412656 0)
(1.17574 -0.0635375 0)
(1.16909 -0.0901715 0)
(1.16079 -0.12258 0)
(1.15092 -0.162618 0)
(1.13975 -0.212572 4.62421e-32)
(1.12805 -0.275624 -4.57126e-32)
(1.11722 -0.35603 0)
(1.10992 -0.459384 0)
(1.11073 -0.592843 0)
(1.12729 -0.765715 0)
(1.17404 -0.983321 0)
(1.22767 -1.17669 0)
(1.0771 -1.07032 0)
(0.643414 -0.594365 0)
(0.0658871 -0.120471 0)
(0 0 0)
(0 0 0)
(0 0 0)
(0 0 0)
(0 0 0)
(0.0516051 0.093678 0)
(0.2409 0.238475 0)
(0.481449 0.439679 0)
(0.75467 0.609727 0)
(0.964668 0.714385 0)
(1.10758 0.755851 0)
(1.20584 0.751788 0)
(1.26952 0.710943 0)
(1.30539 0.639123 0)
(1.31819 0.548946 0)
(1.31585 0.451603 0)
(1.30501 0.357847 0)
(1.29052 0.275376 0)
(1.27533 0.206329 0)
(1.26094 0.150655 0)
(1.24831 0.107422 0)
(1.23771 0.0747993 0)
(1.22911 0.0508088 0)
(1.2223 0.0335081 0)
(1.21701 0.0211048 0)
(1.21287 0.0127325 0)
(1.20999 0.00726814 0)
(1.20775 0.00364417 0)
(1.20608 0.00140581 0)
(1.20481 7.9402e-05 0)
(1.20386 -0.000653138 0)
(1.20316 -0.00100333 0)
(1.20264 -0.00112185 0)
(1.20226 -0.00110416 0)
(1.20197 -0.00101055 0)
(1.20176 -0.000878395 0)
(1.20161 -0.00073119 0)
(1.2015 -0.000580581 0)
(1.20142 -0.000439931 0)
(1.20135 -0.000269871 0)
(1.00057 0.00564365 0)
(1.00391 0.0168118 0)
(1.01146 0.0268805 0)
(1.0222 0.0351155 0)
(1.035 0.0413046 0)
(1.04904 0.0455275 0)
(1.06373 0.0479615 0)
(1.07861 0.0488123 0)
(1.09316 0.0482737 0)
(1.10703 0.0465495 0)
(1.11996 0.0437853 0)
(1.13174 0.0400254 0)
(1.14212 0.0352897 0)
(1.15092 0.0295657 0)
(1.15798 0.02279 0)
(1.1632 0.0147157 0)
(1.16634 0.00509086 0)
(1.16718 -0.00637682 0)
(1.16552 -0.0200452 0)
(1.16116 -0.0363994 0)
(1.15381 -0.0561121 0)
(1.14317 -0.0801077 0)
(1.12888 -0.109733 0)
(1.11046 -0.146825 0)
(1.08743 -0.193864 0)
(1.05945 -0.254398 0)
(1.02642 -0.33343 0)
(0.989053 -0.437991 0)
(0.948832 -0.57781 0)
(0.9135 -0.764968 0)
(0.878244 -0.999325 0)
(0.776594 -1.0254 0)
(0.320631 -0.536701 0)
(0 0 0)
(0 0 0)
(0 0 0)
(0 0 0)
(0 0 0)
(0 0 0)
(0 0 0)
(0 0 0)
(-0.119298 0.0467978 -3.08061e-18)
(0.0222018 0.157764 -3.18093e-17)
(0.209966 0.342121 0)
(0.440516 0.494772 0)
(0.634092 0.589993 0)
(0.792099 0.629493 0)
(0.919056 0.622455 0)
(1.01787 0.579785 0)
(1.09089 0.512997 0)
(1.14239 0.433 0)
(1.17636 0.351 0)
(1.19753 0.275232 0)
(1.21007 0.209839 0)
(1.21688 0.156022 0)
(1.22 0.11329 0)
(1.22088 0.0803194 0)
(1.22051 0.0556348 0)
(1.21946 0.037519 0)
(1.21822 0.0244434 0)
(1.21686 0.0153894 0)
(1.21558 0.00912405 0)
(1.21446 0.005109 0)
(1.21362 0.00267787 0)
(1.21285 0.00108718 0)
(1.21218 0.000113068 0)
(1.21163 -0.000417954 0)
(1.21118 -0.000673225 0)
(1.21082 -0.000760324 0)
(1.21054 -0.000748182 0)
(1.21031 -0.000679571 0)
(1.21014 -0.000581883 0)
(1.21 -0.000470218 0)
(1.20991 -0.000359579 0)
(1.20981 -0.000219862 0)
(1.00046 0.00389727 0)
(1.00315 0.0116318 0)
(1.00924 0.018702 0)
(1.01807 0.0246098 0)
(1.02881 0.0291563 0)
(1.04082 0.0323445 0)
(1.05361 0.0342614 0)
(1.06674 0.0350384 0)
(1.07984 0.0348136 0)
(1.09251 0.0337099 0)
(1.10452 0.031822 0)
(1.11561 0.0291899 0)
(1.12554 0.0258092 0)
(1.13409 0.02163 0)
(1.14102 0.0165591 0)
(1.14611 0.0104682 0)
(1.1491 0.00308565 0)
(1.14957 -0.00580975 0)
(1.14713 -0.0165632 0)
(1.14134 -0.0296214 0)
(1.13163 -0.0455798 0)
(1.11733 -0.0652604 0)
(1.09757 -0.089842 0)
(1.07127 -0.120995 0)
(1.03704 -0.16109 6.20802e-33)
(0.993177 -0.21355 -6.1979e-33)
(0.937595 -0.283387 0)
(0.867951 -0.377939 0)
(0.781066 -0.507667 0)
(0.680498 -0.681959 0)
(0.528461 -0.85962 0)
(0.21994 -0.62643 -6.23879e-16)
(-0.140218 -0.0605654 -9.17279e-18)
(0 0 0)
(0 0 0)
(0 0 0)
(0 0 0)
(0 0 0)
(0 0 0)
(0 0 0)
(0 0 0)
(0 0 0)
(-0.125348 0.0477995 0)
(-0.0621119 0.125354 0)
(0.0996062 0.284658 0)
(0.279142 0.402469 0)
(0.449838 0.46666 0)
(0.605442 0.484274 0)
(0.743131 0.46621 0)
(0.860722 0.423405 0)
(0.956994 0.365718 0)
(1.03187 0.302668 0)
(1.08821 0.241575 0)
(1.12948 0.187011 0)
(1.15896 0.140922 0)
(1.17949 0.103614 0)
(1.19344 0.0743892 0)
(1.20267 0.0521882 0)
(1.2086 0.0357384 0)
(1.21221 0.0237774 0)
(1.21423 0.0153597 0)
(1.2153 0.00954657 0)
(1.21562 0.00555834 0)
(1.21567 0.00302874 0)
(1.21553 0.0015087 0)
(1.2153 0.000567229 0)
(1.21502 -5.55404e-06 0)
(1.21473 -0.000318703 0)
(1.21445 -0.000461365 0)
(1.21421 -0.000501301 0)
(1.214 -0.000479702 0)
(1.21382 -0.000423406 0)
(1.21368 -0.000348112 0)
(1.21358 -0.000268216 0)
(1.21348 -0.000163078 0)
(1.00039 0.00245336 0)
(1.00269 0.00733185 0)
(1.00791 0.01183 0)
(1.01555 0.0156425 0)
(1.02497 0.0186235 0)
(1.03567 0.0207507 0)
(1.04719 0.0220633 0)
(1.05913 0.0226333 0)
(1.07115 0.0225477 0)
(1.0829 0.021883 0)
(1.09411 0.0206949 0)
(1.10453 0.019011 0)
(1.11393 0.0168229 0)
(1.12204 0.0140822 0)
(1.1286 0.0107037 0)
(1.13332 0.00656722 0)
(1.13583 0.00161243 0)
(1.13574 -0.00448678 0)
(1.13245 -0.0119118 0)
(1.12532 -0.0210041 0)
(1.11358 -0.0322238 0)
(1.09624 -0.0461936 0)
(1.07202 -0.0638005 0)
(1.03923 -0.086324 0)
(0.995628 -0.115617 0)
(0.938208 -0.15442 0)
(0.862884 -0.206808 0)
(0.764197 -0.278869 0)
(0.634696 -0.379046 0)
(0.466188 -0.509221 0)
(0.209921 -0.595008 0)
(-0.0685851 -0.328295 -1.36619e-15)
(0 0 0)
(0 0 0)
(0 0 0)
(0 0 0)
(0 0 0)
(0 0 0)
(0 0 0)
(0 0 0)
(0 0 0)
(0 0 0)
(0 0 0)
(-0.08307 0.0403157 0)
(-0.0731035 0.143219 0)
(0.0595104 0.239673 0)
(0.21685 0.301526 0)
(0.378991 0.327042 0)
(0.535389 0.32342 0)
(0.678661 0.299112 0)
(0.8038 0.262183 0)
(0.907726 0.219988 0)
(0.99108 0.177875 0)
(1.05579 0.139357 0)
(1.10448 0.106162 0)
(1.14019 0.0788256 0)
(1.16581 0.0571173 0)
(1.18375 0.0404338 0)
(1.19601 0.0279426 0)
(1.20417 0.0188035 0)
(1.20941 0.0122962 0)
(1.21265 0.00776611 0)
(1.21453 0.00471364 0)
(1.21554 0.00270654 0)
(1.21601 0.00141104 0)
(1.21619 0.000613632 0)
(1.21615 0.000155504 0)
(1.21603 -0.000105641 0)
(1.21585 -0.000240537 0)
(1.21566 -0.000295771 0)
(1.21548 -0.000299103 0)
(1.21532 -0.000271931 0)
(1.21518 -0.00022731 0)
(1.21508 -0.000176311 0)
(1.21498 -0.000106486 0)
(1.00036 0.00118446 0)
(1.00244 0.00354419 0)
(1.00719 0.00573198 0)
(1.01417 0.00760319 0)
(1.02287 0.00907891 0)
(1.03282 0.0101419 0)
(1.04362 0.0108074 0)
(1.05488 0.0111063 0)
(1.06627 0.0110805 0)
(1.07746 0.0107668 0)
(1.08816 0.0101914 0)
(1.09814 0.00936829 0)
(1.10716 0.00829236 0)
(1.11495 0.00693679 0)
(1.12122 0.00524344 0)
(1.12562 0.0031269 0)
(1.12768 0.000630845 0)
(1.12711 -0.00246468 0)
(1.12317 -0.00624508 0)
(1.1151 -0.0109042 0)
(1.10197 -0.016694 0)
(1.08261 -0.0239471 0)
(1.05545 -0.0331384 0)
(1.01836 -0.0449627 0)
(0.96851 -0.0604396 2.64328e-32)
(0.901925 -0.0810872 -2.67499e-32)
(0.813036 -0.1092 0)
(0.694031 -0.148226 0)
(0.533639 -0.202641 0)
(0.312415 -0.270043 0)
(-0.0159483 -0.281121 0)
(-0.157322 -0.0514064 4.79592e-33)
(0 0 0)
(0 0 0)
(0 0 0)
(0 0 0)
(0 0 0)
(0 0 0)
(0 0 0)
(0 0 0)
(0 0 0)
(0 0 0)
(0 0 0)
(-0.131628 0.0125205 -5.14989e-17)
(-0.145814 0.0563803 0)
(-0.0566996 0.10882 0)
(0.0842202 0.146692 0)
(0.243848 0.164277 0)
(0.407994 0.165619 0)
(0.565974 0.155413 0)
(0.706594 0.137221 0)
(0.828119 0.116129 0)
(0.926693 0.0945965 0)
(1.00618 0.0743258 0)
(1.06715 0.056903 0)
(1.11276 0.0424801 0)
(1.14614 0.0309463 0)
(1.16997 0.0220221 0)
(1.1866 0.0153017 0)
(1.19791 0.010364 0)
(1.20539 0.0068302 0)
(1.21019 0.00436198 0)
(1.21314 0.00267803 0)
(1.21488 0.00156389 0)
(1.21582 0.000849778 0)
(1.21627 0.000398465 0)
(1.21644 0.000133009 0)
(1.21642 -1.96707e-05 0)
(1.21632 -9.82346e-05 0)
(1.21618 -0.000133786 0)
(1.21602 -0.000142257 0)
(1.21587 -0.0001331 0)
(1.21575 -0.000112323 0)
(1.21565 -8.6443e-05 0)
(1.21555 -5.21524e-05 0)
(1.00034 -1.07041e-06 0)
(1.00232 -2.60185e-07 0)
(1.00693 -2.24552e-08 0)
(1.01373 5.54017e-07 0)
(1.02219 1.19384e-06 0)
(1.0319 1.93617e-06 0)
(1.04247 2.74657e-06 0)
(1.05352 3.60139e-06 0)
(1.06469 4.44427e-06 0)
(1.07569 5.19685e-06 0)
(1.08623 5.7566e-06 0)
(1.09606 6.0274e-06 0)
(1.10495 5.92739e-06 0)
(1.11262 5.38572e-06 0)
(1.1188 4.38046e-06 0)
(1.12311 2.86451e-06 0)
(1.12507 9.79615e-07 0)
(1.12414 -3.88722e-07 0)
(1.11996 -2.20296e-06 0)
(1.11157 -4.03623e-06 0)
(1.09797 -5.62719e-06 0)
(1.07791 -6.87521e-06 0)
(1.04971 -7.64663e-06 0)
(1.01113 -7.88699e-06 0)
(0.959078 -7.58765e-06 0)
(0.889256 -6.89467e-06 0)
(0.795546 -6.15056e-06 0)
(0.669278 -6.44066e-06 0)
(0.49766 -9.85024e-06 0)
(0.258513 -1.77442e-05 0)
(-0.0830441 -1.93213e-05 0)
(-0.179619 -1.39724e-06 0)
(0 0 0)
(0 0 0)
(0 0 0)
(0 0 0)
(0 0 0)
(0 0 0)
(0 0 0)
(0 0 0)
(0 0 0)
(0 0 0)
(0 0 0)
(-0.142468 -3.46777e-06 0)
(-0.161417 -1.28156e-05 0)
(-0.0924082 -1.38064e-05 0)
(0.0406084 -6.18697e-06 0)
(0.198328 8.92178e-07 0)
(0.364408 5.49047e-06 0)
(0.527504 9.27033e-06 0)
(0.672423 1.05125e-05 0)
(0.802575 1.16755e-05 0)
(0.903917 1.16345e-05 0)
(0.988792 8.91555e-06 0)
(1.054 8.30266e-06 0)
(1.10302 6.08179e-06 0)
(1.13909 3.71919e-06 0)
(1.165 2.32342e-06 0)
(1.18316 9.23192e-07 0)
(1.19559 -3.09805e-08 0)
(1.20388 -6.43842e-07 0)
(1.20923 -9.55835e-07 0)
(1.21257 -1.04634e-06 0)
(1.21457 -9.89852e-07 0)
(1.21568 -8.56952e-07 0)
(1.21624 -6.79496e-07 0)
(1.21647 -5.00424e-07 0)
(1.21649 -3.52432e-07 0)
(1.21643 -2.21378e-07 0)
(1.2163 -1.34196e-07 0)
(1.21615 -8.63114e-08 0)
(1.21601 -1.01848e-07 0)
(1.21589 -1.22701e-07 0)
(1.21579 -1.74183e-07 0)
(1.21569 -2.96526e-07 0)
(1.00036 -0.00118662 0)
(1.00244 -0.00354472 0)
(1.00719 -0.00573205 0)
(1.01417 -0.00760207 0)
(1.02287 -0.00907653 0)
(1.03282 -0.0101381 0)
(1.04362 -0.0108019 0)
(1.05488 -0.0110991 0)
(1.06627 -0.0110716 0)
(1.07746 -0.0107565 0)
(1.08816 -0.0101801 0)
(1.09814 -0.00935638 0)
(1.10716 -0.00828069 0)
(1.11495 -0.00692622 0)
(1.12122 -0.00523498 0)
(1.12563 -0.00312124 0)
(1.12768 -0.00062855 0)
(1.12712 0.00246342 0)
(1.12317 0.00624027 0)
(1.1151 0.0108959 0)
(1.10198 0.0166826 0)
(1.08262 0.0239333 0)
(1.05545 0.0331231 0)
(1.01837 0.0449469 0)
(0.968513 0.0604244 0)
(0.901928 0.0810734 0)
(0.813039 0.109188 0)
(0.694034 0.148213 0)
(0.533641 0.202622 0)
(0.312415 0.270009 0)
(-0.0159526 0.281081 0)
(-0.157319 0.0513987 -4.79507e-33)
(0 0 0)
(0 0 0)
(0 0 0)
(0 0 0)
(0 0 0)
(0 0 0)
(0 0 0)
(0 0 0)
(0 0 0)
(0 0 0)
(0 0 0)
(-0.131609 -0.0125236 5.14376e-17)
(-0.145816 -0.0564038 0)
(-0.0567091 -0.108842 0)
(0.084208 -0.146704 0)
(0.243835 -0.164278 0)
(0.407986 -0.165612 0)
(0.565965 -0.1554 0)
(0.706603 -0.137202 0)
(0.828106 -0.116112 0)
(0.926708 -0.0945732 0)
(1.00618 -0.074311 0)
(1.06715 -0.0568874 0)
(1.11276 -0.0424674 0)
(1.14614 -0.030939 0)
(1.16997 -0.0220174 0)
(1.1866 -0.0152999 0)
(1.19791 -0.010364 0)
(1.2054 -0.00683142 0)
(1.21019 -0.00436376 0)
(1.21315 -0.00267999 0)
(1.21488 -0.0015657 0)
(1.21582 -0.000851379 0)
(1.21627 -0.000399745 0)
(1.21644 -0.000133993 0)
(1.21642 1.90608e-05 0)
(1.21632 9.78468e-05 0)
(1.21618 0.000133486 0)
(1.21602 0.000142044 0)
(1.21587 0.000132899 0)
(1.21575 0.000112037 0)
(1.21565 8.60822e-05 0)
(1.21555 5.154e-05 0)
(1.00039 -0.00245552 0)
(1.00269 -0.00733234 0)
(1.00791 -0.0118301 0)
(1.01555 -0.0156414 0)
(1.02497 -0.0186211 0)
(1.03567 -0.0207469 0)
(1.04719 -0.022058 0)
(1.05913 -0.0226263 0)
(1.07115 -0.0225391 0)
(1.0829 -0.0218729 0)
(1.09411 -0.0206839 0)
(1.10453 -0.0189995 0)
(1.11393 -0.0168117 0)
(1.12204 -0.0140721 0)
(1.1286 -0.0106956 0)
(1.13332 -0.00656179 0)
(1.13583 -0.00161027 0)
(1.13575 0.00448549 0)
(1.13245 0.0119069 0)
(1.12532 0.0209958 0)
(1.11358 0.0322124 0)
(1.09624 0.0461799 0)
(1.07202 0.0637853 0)
(1.03924 0.0863083 0)
(0.995633 0.115601 0)
(0.938213 0.154405 0)
(0.86289 0.206795 0)
(0.764203 0.278857 0)
(0.634702 0.379029 0)
(0.46619 0.509192 0)
(0.209917 0.594968 0)
(-0.0685918 0.328283 1.3662e-15)
(0 0 0)
(0 0 0)
(0 0 0)
(0 0 0)
(0 0 0)
(0 0 0)
(0 0 0)
(0 0 0)
(0 0 0)
(0 0 0)
(0 0 0)
(-0.0830444 -0.0403152 0)
(-0.0730937 -0.143233 0)
(0.0595083 -0.239687 0)
(0.216848 -0.301536 0)
(0.378989 -0.327046 0)
(0.535391 -0.323417 0)
(0.678665 -0.299104 0)
(0.803806 -0.262166 0)
(0.907733 -0.219969 0)
(0.991084 -0.177857 0)
(1.05579 -0.139335 0)
(1.10448 -0.106149 0)
(1.1402 -0.078812 0)
(1.16581 -0.0571105 0)
(1.18375 -0.0404292 0)
(1.19602 -0.0279406 0)
(1.20418 -0.0188033 0)
(1.20941 -0.012297 0)
(1.21265 -0.00776744 0)
(1.21453 -0.00471516 0)
(1.21554 -0.00270794 0)
(1.21602 -0.00141226 0)
(1.21619 -0.000614654 0)
(1.21615 -0.000156258 0)
(1.21603 0.000105093 0)
(1.21585 0.000240189 0)
(1.21566 0.000295532 0)
(1.21548 0.000298907 0)
(1.21532 0.000271732 0)
(1.21518 0.000227027 0)
(1.21508 0.000175929 0)
(1.21498 0.000105855 0)
(1.00046 -0.00389934 0)
(1.00315 -0.0116323 0)
(1.00924 -0.018702 0)
(1.01807 -0.0246087 0)
(1.02881 -0.029154 0)
(1.04082 -0.0323408 0)
(1.05362 -0.0342562 0)
(1.06674 -0.0350317 0)
(1.07984 -0.0348053 0)
(1.09251 -0.0337004 0)
(1.10452 -0.0318115 0)
(1.11561 -0.0291791 0)
(1.12555 -0.0257988 0)
(1.13409 -0.0216206 0)
(1.14103 -0.0165516 0)
(1.14611 -0.0104633 0)
(1.1491 -0.00308393 0)
(1.14958 0.00580806 0)
(1.14714 0.016558 0)
(1.14135 0.029613 0)
(1.13164 0.0455685 0)
(1.11734 0.0652468 0)
(1.09758 0.089827 0)
(1.07128 0.120979 0)
(1.03705 0.161075 0)
(0.993184 0.213536 0)
(0.937602 0.283375 0)
(0.867959 0.377927 0)
(0.781074 0.507653 0)
(0.680502 0.681936 0)
(0.52846 0.859588 0)
(0.219934 0.626414 6.2388e-16)
(-0.140217 0.0605643 9.17312e-18)
(0 0 0)
(0 0 0)
(0 0 0)
(0 0 0)
(0 0 0)
(0 0 0)
(0 0 0)
(0 0 0)
(0 0 0)
(-0.125351 -0.047808 0)
(-0.0621108 -0.125368 0)
(0.0996108 -0.284669 0)
(0.279149 -0.402482 0)
(0.449847 -0.46667 0)
(0.605451 -0.484281 0)
(0.743142 -0.466211 0)
(0.860733 -0.423397 0)
(0.957003 -0.365702 0)
(1.03188 -0.302646 0)
(1.08821 -0.241554 0)
(1.12948 -0.186988 0)
(1.15896 -0.14091 0)
(1.17949 -0.103601 0)
(1.19345 -0.0743821 0)
(1.20268 -0.0521839 0)
(1.20861 -0.0357361 0)
(1.21222 -0.0237767 0)
(1.21424 -0.0153598 0)
(1.2153 -0.00954714 0)
(1.21562 -0.00555897 0)
(1.21567 -0.00302939 0)
(1.21553 -0.00150934 0)
(1.21531 -0.000567838 0)
(1.21502 5.0384e-06 0)
(1.21473 0.000318351 0)
(1.21445 0.000461103 0)
(1.21421 0.000501095 0)
(1.214 0.000479506 0)
(1.21382 0.000423176 0)
(1.21368 0.0003478 0)
(1.21358 0.000267796 0)
(1.21348 0.000162414 0)
(1.00057 -0.00564556 0)
(1.00391 -0.0168122 0)
(1.01145 -0.0268805 0)
(1.0222 -0.0351144 0)
(1.035 -0.0413024 0)
(1.04904 -0.045524 0)
(1.06373 -0.0479566 0)
(1.07861 -0.0488059 0)
(1.09316 -0.048266 0)
(1.10703 -0.0465407 0)
(1.11997 -0.0437756 0)
(1.13175 -0.0400156 0)
(1.14212 -0.0352803 0)
(1.15092 -0.0295573 0)
(1.15798 -0.0227833 0)
(1.1632 -0.0147116 0)
(1.16634 -0.00508981 0)
(1.16719 0.00637463 0)
(1.16554 0.0200397 0)
(1.16117 0.0363908 0)
(1.15382 0.0561009 0)
(1.14318 0.0800945 0)
(1.12889 0.109718 0)
(1.11047 0.14681 0)
(1.08744 0.193849 0)
(1.05946 0.254383 0)
(1.02643 0.333417 0)
(0.989062 0.437979 0)
(0.948841 0.577797 0)
(0.913508 0.764949 0)
(0.878248 0.999292 0)
(0.776595 1.02539 0)
(0.32063 0.5367 0)
(0 0 0)
(0 0 0)
(0 0 0)
(0 0 0)
(0 0 0)
(0 0 0)
(0 0 0)
(0 0 0)
(-0.119303 -0.0467996 3.08421e-18)
(0.0222019 -0.157768 3.18068e-17)
(0.209972 -0.342137 0)
(0.44052 -0.494789 0)
(0.634101 -0.590009 0)
(0.792106 -0.629505 0)
(0.919064 -0.62246 0)
(1.01787 -0.579784 0)
(1.09089 -0.512985 0)
(1.14238 -0.432979 0)
(1.17635 -0.350976 0)
(1.19753 -0.275209 0)
(1.21007 -0.209821 0)
(1.21688 -0.156008 0)
(1.22 -0.11328 0)
(1.22089 -0.0803129 0)
(1.22052 -0.0556305 0)
(1.21947 -0.0375162 0)
(1.21822 -0.0244417 0)
(1.21686 -0.0153885 0)
(1.21559 -0.00912354 0)
(1.21446 -0.00510862 0)
(1.21363 -0.0026778 0)
(1.21285 -0.00108722 0)
(1.21218 -0.000113192 0)
(1.21163 0.000417807 0)
(1.21118 0.000673073 0)
(1.21082 0.000760165 0)
(1.21054 0.00074801 0)
(1.21031 0.000679365 0)
(1.21014 0.000581619 0)
(1.21 0.000469859 0)
(1.20991 0.000359105 0)
(1.20981 0.000219161 0)
(1.00075 -0.00789526 0)
(1.00518 -0.023425 0)
(1.01505 -0.0371208 0)
(1.02877 -0.0479783 0)
(1.04466 -0.055876 0)
(1.06162 -0.0610443 0)
(1.0789 -0.0637792 0)
(1.0959 -0.064385 0)
(1.11206 -0.0631634 0)
(1.12701 -0.0604708 0)
(1.14052 -0.0565208 0)
(1.15246 -0.0513226 0)
(1.16254 -0.0449542 0)
(1.17079 -0.0374541 0)
(1.17716 -0.0288218 0)
(1.1817 -0.0187774 0)
(1.1843 -0.0071109 0)
(1.18497 0.00651568 0)
(1.18374 0.0224815 0)
(1.18066 0.0412571 0)
(1.17575 0.0635267 0)
(1.1691 0.0901589 0)
(1.1608 0.122566 0)
(1.15093 0.162604 0)
(1.13976 0.212557 0)
(1.12805 0.275611 0)
(1.11723 0.356017 0)
(1.10993 0.459371 0)
(1.11074 0.592831 0)
(1.1273 0.765698 0)
(1.17404 0.9833 0)
(1.22766 1.17668 0)
(1.07711 1.07031 0)
(0.643448 0.594364 0)
(0.0658463 0.120423 -6.47386e-18)
(0 0 0)
(0 0 0)
(0 0 0)
(0 0 0)
(0 0 0)
(0.0516042 -0.0936783 0)
(0.240891 -0.238477 0)
(0.481445 -0.43969 0)
(0.75467 -0.60974 0)
(0.964669 -0.714403 0)
(1.10758 -0.755869 0)
(1.20583 -0.751799 0)
(1.26952 -0.710947 0)
(1.30538 -0.639116 0)
(1.31818 -0.548931 0)
(1.31584 -0.451581 0)
(1.30499 -0.357825 0)
(1.29052 -0.275357 0)