/*--------------------------------*- C++ -*----------------------------------*\
| =========                 |                                                 |
| \\      /  F ield         | OpenFOAM: The Open Source CFD Toolbox           |
|  \\    /   O peration     | Version:  2206                                  |
|   \\  /    A nd           | Website:  www.openfoam.com                      |
|    \\/     M anipulation  |                                                 |
\*---------------------------------------------------------------------------*/
FoamFile
{
    version     2.0;
    format      ascii;
    arch        "LSB;label=32;scalar=64";
    class       surfaceVectorField;
    location    "0.7";
    object      Uf;
}
// * * * * * * * * * * * * * * * * * * * * * * * * * * * * * * * * * * * * * //

dimensions      [0 1 -1 0 0 0 0];

internalField   nonuniform List<vector> 
3650
(
(0.859814 0.0532588 0)
(0.903271 0.140186 0)
(0.701392 0.0846431 0)
(0.900296 0.158421 0)
(0.567308 0.0661159 0)
(0.843182 0.134084 0)
(0.463788 0.036677 0)
(0.752174 0.10352 0)
(0.387693 0.0189988 0)
(0.67197 0.076095 0)
(0.333679 0.0103328 0)
(0.606495 0.0540143 0)
(0.29564 0.00559539 0)
(0.554005 0.0380384 0)
(0.268855 0.00296047 0)
(0.511606 0.0267851 0)
(0.24972 0.00154841 0)
(0.478044 0.0191345 0)
(0.235811 0.000780889 0)
(0.451754 0.0139095 0)
(0.225647 0.000327094 0)
(0.431272 0.0101635 0)
(0.218324 1.54035e-05 0)
(0.415491 0.00732325 0)
(0.213326 -0.000254135 0)
(0.403637 0.00499759 0)
(0.2104 -0.000528796 0)
(0.395217 0.00292606 0)
(0.20943 -0.000832405 0)
(0.389981 0.00097013 0)
(0.210346 -0.00120135 0)
(0.387822 -0.000916415 0)
(0.213049 -0.00165136 0)
(0.388437 -0.00270284 0)
(0.217819 -0.00218311 0)
(0.391939 -0.00476987 0)
(0.224894 -0.0028276 0)
(0.398623 -0.00707561 0)
(0.234609 -0.00362659 0)
(0.408742 -0.00971498 0)
(0.247421 -0.00461945 0)
(0.422729 -0.0128123 0)
(0.263933 -0.00585254 0)
(0.44119 -0.0165114 0)
(0.284911 -0.00737845 0)
(0.464914 -0.0209783 0)
(0.311302 -0.00925004 0)
(0.494902 -0.0263915 0)
(0.344223 -0.0115081 0)
(0.532361 -0.0329205 0)
(0.384909 -0.0141638 0)
(0.578682 -0.0406856 0)
(0.43463 -0.0171743 0)
(0.63536 -0.0497222 0)
(0.494536 -0.0204006 0)
(0.703885 -0.0599051 0)
(0.565369 -0.0235559 0)
(0.785514 -0.0708336 0)
(0.647079 -0.0261471 0)
(0.880949 -0.0817095 0)
(0.738269 -0.0274383 0)
(0.989846 -0.0911898 0)
(0.835606 -0.0264304 0)
(1.11018 -0.0973371 0)
(0.933198 -0.0219241 0)
(1.23751 -0.097591 0)
(1.02211 -0.0132225 0)
(1.36486 -0.088912 0)
(1.09117 -0.000928336 0)
(1.48173 -0.0690621 0)
(1.12915 0.0127406 0)
(1.57468 -0.0379795 0)
(1.1285 0.0270952 0)
(1.62871 0.00064793 0)
(1.08886 0.039577 0)
(1.63753 0.0396413 0)
(1.01386 0.0470084 0)
(1.59999 0.0750065 0)
(0.910848 0.0485801 0)
(1.51798 0.103008 0)
(0.792236 0.0441055 0)
(1.3994 0.118611 0)
(0.671206 0.0363339 0)
(1.25654 0.121029 0)
(0.558409 0.0273669 0)
(1.10315 0.112797 0)
(0.46061 0.0186625 0)
(0.952245 0.0977985 0)
(0.380558 0.0116561 0)
(0.812434 0.0800511 0)
(0.31795 0.00748457 0)
(0.692164 0.0626075 0)
(0.270497 0.00574723 0)
(0.59295 0.0474529 0)
(0.235266 0.00345811 0)
(0.516444 0.0352305 0)
(0.209969 0.00135033 0)
(0.457319 0.0252958 0)
(0.192486 0.000671088 0)
(0.414056 0.0174827 0)
(0.180995 7.72781e-05 0)
(0.383674 0.0114902 0)
(0.174038 -0.000414324 0)
(0.362873 0.00695647 0)
(0.170378 -0.000705386 0)
(0.349428 0.00366029 0)
(0.169071 -0.000947273 0)
(0.341383 0.00130632 0)
(0.169326 -0.00108457 0)
(0.337071 -0.000254929 0)
(0.170478 -0.00107516 0)
(0.335309 -0.00115262 0)
(0.172099 -0.000993108 0)
(0.335233 -0.00162045 0)
(0.173923 -0.000884349 0)
(0.336149 -0.00182472 0)
(0.175779 -0.000770308 0)
(0.337581 -0.00185559 0)
(0.177542 -0.00066301 0)
(0.339257 -0.00176331 0)
(0.179136 -0.000559039 0)
(0.340928 -0.00159464 0)
(0.180534 -0.000463713 0)
(0.342512 -0.00139766 0)
(0.181732 -0.000379598 0)
(0.343942 -0.00119772 0)
(0.182738 -0.000307121 0)
(0.345192 -0.00100645 0)
(0.183569 -0.000245802 0)
(0.346256 -0.000831192 0)
(0.184247 -0.000194928 0)
(0.347145 -0.00067742 0)
(0.184792 -0.000153261 0)
(0.347876 -0.000545968 0)
(0.185228 -0.00011949 0)
(0.348469 -0.000435525 0)
(0.185572 -9.22938e-05 0)
(0.348946 -0.000344003 0)
(0.185841 -7.04559e-05 0)
(0.349324 -0.000268735 0)
(0.186048 -5.29091e-05 0)
(0.34962 -0.000207155 0)
(0.186204 -3.86748e-05 0)
(0.349848 -0.000156718 0)
(0.18632 -2.67556e-05 0)
(0.35002 -0.000115146 0)
(0.1864 -1.83797e-05 0)
(0.350145 -7.99712e-05 0)
(0.350241 -5.14361e-05 0)
(1.0517 0.154918 0)
(1.01328 0.0884814 0)
(1.04739 0.183224 0)
(1.05545 0.162733 0)
(1.0105 0.168347 0)
(1.06751 0.17098 0)
(0.955237 0.143523 0)
(1.04912 0.15878 0)
(0.890716 0.113525 0)
(1.0138 0.140615 0)
(0.826402 0.0848658 0)
(0.97113 0.118328 0)
(0.768851 0.0621408 0)
(0.927542 0.0955893 0)
(0.720051 0.0454672 0)
(0.884798 0.0755856 0)
(0.679693 0.0334776 0)
(0.845452 0.0594917 0)
(0.646969 0.0247171 0)
(0.811058 0.0466338 0)
(0.620952 0.0181005 0)
(0.781903 0.0361807 0)
(0.600677 0.0128507 0)
(0.757783 0.0275979 0)
(0.585414 0.00839697 0)
(0.738335 0.0202606 0)
(0.574684 0.00437076 0)
(0.723321 0.0136562 0)
(0.568184 0.000615992 0)
(0.712588 0.00746998 0)
(0.565703 -0.00291436 0)
(0.706051 0.00156417 0)
(0.567105 -0.00657662 0)
(0.703589 -0.00410523 0)
(0.572478 -0.0106637 0)
(0.705164 -0.0101431 0)
(0.582121 -0.0152186 0)
(0.711074 -0.0167183 0)
(0.596423 -0.0204351 0)
(0.721595 -0.0240174 0)
(0.615957 -0.0265523 0)
(0.737176 -0.0323458 0)
(0.641502 -0.0338384 0)
(0.75846 -0.0420565 0)
(0.674077 -0.0425815 0)
(0.786298 -0.053554 0)
(0.714944 -0.0530636 0)
(0.821805 -0.0672585 0)
(0.7656 -0.0655151 0)
(0.866315 -0.083576 0)
(0.827708 -0.0800528 0)
(0.921414 -0.102794 0)
(0.903014 -0.0965887 0)
(0.988893 -0.125029 0)
(0.993185 -0.114684 0)
(1.07065 -0.150076 0)
(1.09952 -0.133375 0)
(1.16853 -0.177167 0)
(1.22255 -0.15096 0)
(1.284 -0.204746 0)
(1.36145 -0.164842 0)
(1.41771 -0.230081 0)
(1.51326 -0.171495 0)
(1.56882 -0.249155 0)
(1.67227 -0.166559 0)
(1.73421 -0.256594 0)
(1.82899 -0.145516 0)
(1.90737 -0.245632 0)
(1.97002 -0.105834 0)
(2.07663 -0.210089 0)
(2.07991 -0.0486298 0)
(2.22583 -0.147879 0)
(2.14324 0.0166954 0)
(2.33554 -0.0626757 0)
(2.15073 0.0808384 0)
(2.39249 0.0321465 0)
(2.10409 0.139212 0)
(2.39277 0.121655 0)
(2.00462 0.183824 0)
(2.3364 0.202476 0)
(1.86127 0.208474 0)
(2.22818 0.261956 0)
(1.6866 0.21274 0)
(2.07903 0.2957 0)
(1.495 0.199655 0)
(1.90093 0.3044 0)
(1.30205 0.174185 0)
(1.70643 0.290744 0)
(1.12253 0.1428 0)
(1.50939 0.25957 0)
(0.966656 0.111696 0)
(1.32303 0.218483 0)
(0.838433 0.0843448 0)
(1.15858 0.175675 0)
(0.737464 0.0616484 0)
(1.02036 0.136199 0)
(0.660979 0.0435688 0)
(0.909534 0.10178 0)
(0.604951 0.0296206 0)
(0.824252 0.0735098 0)
(0.565236 0.0190754 0)
(0.760924 0.0512054 0)
(0.538073 0.0113047 0)
(0.715343 0.0341187 0)
(0.520306 0.00575056 0)
(0.68364 0.021427 0)
(0.50931 0.00195877 0)
(0.662365 0.0123019 0)
(0.503062 -0.000449579 0)
(0.648655 0.0059928 0)
(0.500107 -0.00188102 0)
(0.640378 0.00180261 0)
(0.499335 -0.00264491 0)
(0.635876 -0.000848336 0)
(0.499879 -0.00296488 0)
(0.63385 -0.00236894 0)
(0.501134 -0.00299168 0)
(0.633352 -0.00311129 0)
(0.502712 -0.0028145 0)
(0.633805 -0.0033415 0)
(0.50437 -0.00253067 0)
(0.634739 -0.00325217 0)
(0.505978 -0.00220796 0)
(0.635894 -0.00300639 0)
(0.507454 -0.00188397 0)
(0.637094 -0.00267306 0)
(0.508755 -0.00157814 0)
(0.638239 -0.00230763 0)
(0.509869 -0.00130122 0)
(0.63928 -0.001945 0)
(0.510804 -0.00105905 0)
(0.640189 -0.00161296 0)
(0.511577 -0.000852147 0)
(0.640965 -0.00131893 0)
(0.512207 -0.000678481 0)
(0.641613 -0.00106532 0)
(0.512713 -0.000534451 0)
(0.642145 -0.000850575 0)
(0.513115 -0.000415823 0)
(0.642575 -0.00067094 0)
(0.51343 -0.00031836 0)
(0.642917 -0.000521711 0)
(0.513671 -0.000238044 0)
(0.643185 -0.000398021 0)
(0.513851 -0.000171082 0)
(0.64339 -0.00029494 0)
(0.51398 -0.000113589 0)
(0.64354 -0.000208613 0)
(0.643662 -0.000127551 0)
(1.03946 0.111118 0)
(1.00907 0.0490165 0)
(1.08196 0.157505 0)
(1.04734 0.120233 0)
(1.10295 0.165259 0)
(1.08759 0.149998 0)
(1.10553 0.159482 0)
(1.11058 0.156195 0)
(1.09419 0.147748 0)
(1.11703 0.151952 0)
(1.07215 0.130396 0)
(1.11468 0.140373 0)
(1.04286 0.109965 0)
(1.10239 0.124879 0)
(1.00974 0.0900894 0)
(1.08398 0.108706 0)
(0.976504 0.0727311 0)
(1.06209 0.0927274 0)
(0.945765 0.0580758 0)
(1.03933 0.0773727 0)
(0.918599 0.0457036 0)
(1.01712 0.0633472 0)
(0.895327 0.0350311 0)
(0.996566 0.0508696 0)
(0.876126 0.0254778 0)
(0.978321 0.0394616 0)
(0.861116 0.0166289 0)
(0.962911 0.0286661 0)
(0.850311 0.00822771 0)
(0.950707 0.0182752 0)
(0.843723 0.000136081 0)
(0.941889 0.00815189 0)
(0.841455 -0.00797056 0)
(0.936657 -0.00183797 0)
(0.843535 -0.0165752 0)
(0.935162 -0.0122224 0)
(0.850244 -0.025976 0)
(0.937722 -0.0234278 0)
(0.861962 -0.0364646 0)
(0.944667 -0.0357352 0)
(0.879204 -0.0484622 0)
(0.956444 -0.0495887 0)
(0.902663 -0.0624683 0)
(0.973647 -0.0655154 0)
(0.933292 -0.079034 0)
(0.997 -0.0841825 0)
(0.972264 -0.0986959 0)
(1.02764 -0.106231 0)
(1.02102 -0.121903 0)
(1.0667 -0.132333 1.36965e-33)
(1.08128 -0.148955 0)
(1.11583 -0.163057 -1.34444e-33)
(1.15503 -0.179861 0)
(1.17703 -0.19877 0)
(1.24437 -0.214077 0)
(1.25262 -0.239423 0)
(1.3514 -0.250212 0)
(1.34525 -0.284199 0)
(1.47788 -0.285635 0)
(1.45765 -0.331225 0)
(1.62454 -0.316146 0)
(1.59227 -0.376734 0)
(1.79056 -0.335766 0)
(1.75069 -0.415181 0)
(1.97222 -0.336473 0)
(1.93372 -0.438248 0)
(2.15975 -0.309824 0)
(2.13482 -0.43317 0)
(2.33796 -0.249918 0)
(2.33673 -0.388298 0)
(2.48722 -0.158186 0)
(2.51684 -0.297136 0)
(2.58914 -0.0435428 0)
(2.64954 -0.164594 0)
(2.63654 0.0751819 0)
(2.73791 -0.01525 0)
(2.62446 0.185616 0)
(2.74937 0.133733 0)
(2.55653 0.280645 0)
(2.71332 0.270406 0)
(2.44287 0.348865 0)
(2.6263 0.375618 0)
(2.29113 0.38647 0)
(2.50039 0.447434 0)
(2.11044 0.394059 0)
(2.34519 0.485091 0)
(1.91231 0.375038 0)
(2.16805 0.488872 0)
(1.70935 0.334365 0)
(1.9782 0.462529 0)
(1.51484 0.281988 0)
(1.78518 0.412994 0)
(1.34015 0.227614 0)
(1.60098 0.350366 0)
(1.19207 0.176127 0)
(1.43346 0.284278 0)
(1.07253 0.131271 0)
(1.29014 0.221321 0)
(0.979979 0.0944787 0)
(1.17337 0.166059 0)
(0.910825 0.0655458 0)
(1.08212 0.120359 0)
(0.860748 0.0435478 0)
(1.01325 0.0841958 0)
(0.825575 0.0273508 0)
(0.962841 0.0565996 0)
(0.801648 0.0158084 0)
(0.92698 0.0362293 0)
(0.785971 0.00784837 0)
(0.902184 0.0216694 0)
(0.776173 0.00257362 0)
(0.885552 0.0116003 0)
(0.770421 -0.000736054 0)
(0.874778 0.00490318 0)
(0.767383 -0.0026319 0)
(0.868083 0.000668857 0)
(0.766092 -0.00354939 0)
(0.864169 -0.00181991 0)
(0.765885 -0.00384009 0)
(0.862114 -0.00313474 0)
(0.766321 -0.00376829 0)
(0.861261 -0.00368856 0)
(0.767062 -0.00349998 0)
(0.861094 -0.00374736 0)
(0.767921 -0.0031153 0)
(0.861346 -0.0035318 0)
(0.768802 -0.00268434 0)
(0.861799 -0.00318912 0)
(0.769632 -0.00226163 0)
(0.862339 -0.00277477 0)
(0.770377 -0.0018752 0)
(0.862895 -0.00235792 0)
(0.771022 -0.00153305 0)
(0.863419 -0.00196428 0)
(0.771568 -0.00123743 0)
(0.863888 -0.00161073 0)
(0.77202 -0.000986461 0)
(0.864293 -0.00130253 0)
(0.772387 -0.000775834 0)
(0.864633 -0.00103872 0)
(0.772681 -0.000600169 0)
(0.864912 -0.000815522 0)
(0.772911 -0.000453647 0)
(0.865137 -0.000627879 0)
(0.773086 -0.000331377 0)
(0.865313 -0.000469557 0)
(0.773215 -0.000221814 0)
(0.865444 -0.000338315 0)
(0.865557 -0.000205294 0)
(1.0197 0.0664919 0)
(1.0042 0.0293207 0)
(1.0594 0.113225 0)
(1.02711 0.080525 0)
(1.09573 0.138497 0)
(1.06411 0.113668 0)
(1.12139 0.146586 0)
(1.09765 0.130539 0)
(1.13752 0.143796 0)
(1.12159 0.135824 0)
(1.14472 0.135041 0)
(1.13939 0.133173 0)
(1.14353 0.123893 0)
(1.14838 0.126061 0)
(1.13601 0.111533 0)
(1.15133 0.116226 0)
(1.12455 0.0977132 0)
(1.15021 0.104189 0)
(1.11058 0.0829854 0)
(1.14462 0.0913507 0)
(1.09502 0.0686592 0)
(1.13653 0.0789063 0)
(1.07945 0.0552677 0)
(1.12706 0.0664369 0)
(1.06498 0.0425699 0)
(1.11711 0.0539287 0)
(1.05241 0.0303233 0)
(1.10754 0.0412397 0)
(1.04219 0.0183412 0)
(1.09894 0.0284972 0)
(1.03463 0.00640216 0)
(1.09174 0.0157044 0)
(1.0302 -0.00579534 0)
(1.0864 0.00259657 0)
(1.02918 -0.0187066 0)
(1.08342 -0.0112007 0)
(1.0319 -0.0327652 0)
(1.08322 -0.0261498 0)
(1.03882 -0.0483784 0)
(1.08625 -0.0426615 0)
(1.05049 -0.0660846 0)
(1.09301 -0.0612511 0)
(1.06746 -0.0865681 0)
(1.10406 -0.0824918 0)
(1.09067 -0.110608 0)
(1.11982 -0.107392 0)
(1.12122 -0.139017 1.36965e-33)
(1.14169 -0.136778 0)
(1.16043 -0.172576 2.62285e-35)
(1.17049 -0.171545 1.36965e-33)
(1.21022 -0.21194 -1.34444e-33)
(1.20823 -0.21285 -1.34444e-33)
(1.27299 -0.257468 0)
(1.2571 -0.261539 0)
(1.35162 -0.308873 0)
(1.31997 -0.318056 0)
(1.44949 -0.364884 0)
(1.40057 -0.382066 0)
(1.57024 -0.422457 0)
(1.50356 -0.451974 0)
(1.71725 -0.476348 0)
(1.63388 -0.523742 0)
(1.89404 -0.518103 0)
(1.79788 -0.591975 0)
(2.09952 -0.533793 0)
(2.00215 -0.643722 0)
(2.31773 -0.507604 0)
(2.2276 -0.651385 0)
(2.52287 -0.428705 0)
(2.4454 -0.593437 0)
(2.68785 -0.297558 0)
(2.62235 -0.462111 0)
(2.80095 -0.132747 0)
(2.75321 -0.277699 0)
(2.85219 0.0460099 0)
(2.81711 -0.0664866 0)
(2.83824 0.218843 0)
(2.81125 0.147687 0)
(2.77692 0.363775 0)
(2.76794 0.331718 0)
(2.67962 0.473904 0)
(2.6884 0.472919 0)
(2.55192 0.547412 0)
(2.58415 0.575132 0)
(2.40096 0.581675 0)
(2.46559 0.636056 0)
(2.23222 0.577982 0)
(2.32499 0.657613 0)
(2.0536 0.542129 0)
(2.1703 0.641141 0)
(1.87176 0.482762 0)
(2.00814 0.594835 0)
(1.69438 0.409048 0)
(1.84379 0.527749 0)
(1.53165 0.330809 0)
(1.68491 0.447007 0)
(1.39108 0.256768 0)
(1.54005 0.361893 0)
(1.27555 0.192167 0)
(1.41545 0.281591 0)
(1.1845 0.139017 0)
(1.31272 0.211402 0)
(1.11526 0.0971663 0)
(1.23111 0.153436 0)
(1.06417 0.0653817 0)
(1.1684 0.107689 0)
(1.02747 0.0420183 0)
(1.12157 0.0729293 0)
(1.00176 0.0253802 0)
(1.08749 0.0473859 0)
(0.984168 0.013912 0)
(1.06322 0.0291874 0)
(0.972461 0.00630111 0)
(1.04632 0.0166101 0)
(0.964913 0.00148023 0)
(1.03482 0.00821706 0)
(0.960245 -0.00139589 0)
(1.0272 0.00284827 0)
(0.957526 -0.00296423 0)
(1.02229 -0.00041666 0)
(0.956081 -0.0036428 0)
(1.01926 -0.00224346 0)
(0.955424 -0.00375662 0)
(1.01746 -0.00308982 0)
(0.955254 -0.00358797 0)
(1.01649 -0.00336222 0)
(0.955366 -0.00326442 0)
(1.01602 -0.00330099 0)
(0.955626 -0.00285668 0)
(1.01587 -0.00303473 0)
(0.955959 -0.00243382 0)
(1.0159 -0.00269097 0)
(0.956303 -0.00203124 0)
(1.01603 -0.00230825 0)
(0.956627 -0.00166735 0)
(1.01621 -0.00193502 0)
(0.956917 -0.00134818 0)
(1.01639 -0.00159243 0)
(0.957167 -0.00107333 0)
(1.01658 -0.00128842 0)
(0.957375 -0.000839436 0)
(1.01674 -0.00102406 0)
(0.957544 -0.000641099 0)
(1.01688 -0.00079713 0)
(0.957677 -0.000474891 0)
(1.01699 -0.000602147 0)
(0.957779 -0.000321234 0)
(1.01708 -0.000440347 0)
(1.01716 -0.000267996 0)
(1.01043 0.0440735 0)
(1.00232 0.018895 0)
(1.0361 0.0801134 0)
(1.01543 0.0548469 0)
(1.06742 0.104878 0)
(1.04074 0.0823536 0)
(1.09769 0.11904 0)
(1.07002 0.10027 0)
(1.12335 0.124434 0)
(1.09718 0.110159 0)
(1.14292 0.123528 0)
(1.12065 0.113604 0)
(1.15653 0.118225 0)
(1.13958 0.11245 0)
(1.16525 0.109257 0)
(1.15388 0.10751 0)
(1.16988 0.0984297 0)
(1.16489 0.0995537 0)
(1.1707 0.0878251 0)
(1.17119 0.090533 0)
(1.16857 0.0771877 0)
(1.17463 0.0810417 0)
(1.16454 0.0657466 0)
(1.17579 0.0704608 0)
(1.15954 0.0533586 0)
(1.17542 0.0589326 0)
(1.15405 0.0401042 0)
(1.17339 0.0467273 0)
(1.14845 0.026407 0)
(1.17058 0.0340995 0)
(1.14336 0.0123467 0)
(1.16744 0.0207958 0)
(1.13947 -0.00237484 0)
(1.1644 0.00648056 0)
(1.13733 -0.0181592 0)
(1.16198 -0.00905678 0)
(1.13738 -0.0354858 0)
(1.16069 -0.0261984 0)
(1.14016 -0.0548995 0)
(1.16096 -0.045449 0)
(1.14624 -0.0769893 0)
(1.1633 -0.06733 0)
(1.15597 -0.102638 0)
(1.16832 -0.09222 0)
(1.17015 -0.1328 0)
(1.17611 -0.121574 0)
(1.19008 -0.168428 0)
(1.18844 -0.156709 0)
(1.2172 -0.210973 0)
(1.20598 -0.198665 0)
(1.25362 -0.261808 0)
(1.23082 -0.249266 0)
(1.30214 -0.321827 0)
(1.26523 -0.31006 0)
(1.36654 -0.391482 0)
(1.3126 -0.382461 0)
(1.45187 -0.47013 0)
(1.37777 -0.467391 0)
(1.56445 -0.555071 0)
(1.46759 -0.564551 0)
(1.71183 -0.641755 0)
(1.5904 -0.671121 0)
(1.90476 -0.719534 0)
(1.76002 -0.784908 0)
(2.13467 -0.764183 0)
(1.97871 -0.873634 0)
(2.36383 -0.746948 0)
(2.18391 -0.880548 0)
(2.55869 -0.645706 0)
(2.36755 -0.788296 0)
(2.69761 -0.460173 0)
(2.45981 -0.601026 0)
(2.77029 -0.223885 0)
(2.47666 -0.350383 0)
(2.7773 0.0228454 0)
(2.43931 -0.0734957 0)
(2.73942 0.249188 0)
(2.40421 0.185569 0)
(2.67022 0.429258 0)
(2.37927 0.400919 0)
(2.58903 0.560025 0)
(2.35117 0.554104 0)
(2.4938 0.651045 0)
(2.3163 0.670367 0)
(2.38715 0.703375 0)
(2.26674 0.742699 0)
(2.2606 0.715704 0)
(2.19276 0.78417 0)
(2.12486 0.690699 0)
(2.09925 0.776878 0)
(1.98068 0.637735 0)
(1.99311 0.739017 0)
(1.83443 0.565105 0)
(1.87692 0.674 0)
(1.69377 0.478785 0)
(1.75544 0.587666 0)
(1.56504 0.387986 0)
(1.63637 0.490622 0)
(1.45308 0.302082 0)
(1.52734 0.393547 0)
(1.35955 0.226811 0)
(1.43307 0.304933 0)
(1.28433 0.164692 0)
(1.3547 0.228659 0)
(1.22582 0.115779 0)
(1.29171 0.166199 0)
(1.18159 0.0787007 0)
(1.24246 0.117157 0)
(1.14895 0.0514955 0)
(1.20489 0.0800242 0)
(1.12537 0.0321104 0)
(1.17685 0.0527662 0)
(1.10869 0.0186946 0)
(1.15634 0.033293 0)
(1.09713 0.00971305 0)
(1.14164 0.0197792 0)
(1.08927 0.00392223 0)
(1.13132 0.0107076 0)
(1.08405 0.000369748 0)
(1.12418 0.00480127 0)
(1.08067 -0.00164648 0)
(1.11936 0.00113817 0)
(1.07855 -0.00266197 0)
(1.11616 -0.000973413 0)
(1.07728 -0.00305033 0)
(1.11408 -0.0020877 0)
(1.07654 -0.00305487 0)
(1.11276 -0.00256692 0)
(1.07615 -0.00285744 0)
(1.11194 -0.00264692 0)
(1.07598 -0.0025565 0)
(1.11145 -0.00251978 0)
(1.07595 -0.00220518 0)
(1.11118 -0.00227 0)
(1.07598 -0.00185557 0)
(1.11104 -0.00197437 0)
(1.07606 -0.00153002 0)
(1.11099 -0.0016705 0)
(1.07615 -0.00123782 0)
(1.11099 -0.00138052 0)
(1.07625 -0.000981312 0)
(1.11102 -0.00111575 0)
(1.07633 -0.00075832 0)
(1.11106 -0.00088054 0)
(1.0764 -0.000567919 0)
(1.1111 -0.000672802 0)
(1.07646 -0.000387361 0)
(1.11113 -0.000496553 0)
(1.11116 -0.00030314 0)
(1.00594 0.0305167 0)
(1.00138 0.0129529 0)
(1.02221 0.0572769 0)
(1.00942 0.0385815 0)
(1.0447 0.0776135 0)
(1.0263 0.0598587 0)
(1.06968 0.0912919 0)
(1.04805 0.075295 0)
(1.09449 0.0992062 0)
(1.07104 0.0853448 0)
(1.11727 0.102358 0)
(1.09343 0.0908271 0)
(1.13712 0.101573 0)
(1.11426 0.0925949 0)
(1.15346 0.0975586 0)
(1.13279 0.0911748 0)
(1.16596 0.091298 0)
(1.14856 0.0870569 0)
(1.1752 0.0836329 0)
(1.1612 0.0812883 0)
(1.1819 0.0745379 0)
(1.17131 0.0743394 0)
(1.18649 0.0639871 0)
(1.17919 0.0658767 0)
(1.18914 0.0526917 0)
(1.18517 0.0562779 0)
(1.18999 0.0411164 0)
(1.18891 0.0458795 0)
(1.18956 0.0288708 0)
(1.19095 0.0345236 0)
(1.18835 0.0153583 0)
(1.19178 0.0220059 0)
(1.18679 0.000306163 0)
(1.19152 0.00804196 0)
(1.18525 -0.0165006 0)
(1.19058 -0.00751301 0)
(1.18413 -0.0354817 0)
(1.18934 -0.0250763 0)
(1.18391 -0.0571141 0)
(1.18799 -0.0452274 0)
(1.18506 -0.0816527 0)
(1.18695 -0.0684881 0)
(1.18808 -0.110086 0)
(1.18671 -0.0952355 0)
(1.19377 -0.144386 0)
(1.18771 -0.12727 0)
(1.20344 -0.185936 0)
(1.19106 -0.166378 0)
(1.21846 -0.236031 0)
(1.19741 -0.213679 0)
(1.24074 -0.296713 0)
(1.20846 -0.271553 0)
(1.27333 -0.370153 0)
(1.22651 -0.342646 0)
(1.32072 -0.45832 0)
(1.25517 -0.429851 0)
(1.38948 -0.562564 0)
(1.29999 -0.536147 0)
(1.48904 -0.682615 0)
(1.36947 -0.664116 0)
(1.63249 -0.817949 0)
(1.47564 -0.814567 0)
(1.83281 -0.948092 0)
(1.63541 -0.985232 0)
(2.03683 -1.01358 0)
(1.81401 -1.07766 0)
(2.1959 -0.968645 0)
(1.87961 -1.03962 0)
(2.28977 -0.816605 0)
(1.83637 -0.882166 0)
(2.25838 -0.568338 0)
(1.64902 -0.569633 0)
(2.14304 -0.255304 0)
(1.38524 -0.235038 4.97756e-18)
(2.06445 0.0522955 0)
(1.20006 0.00508712 0)
(2.04113 0.312845 0)
(1.24733 0.20889 -2.88949e-17)
(2.0423 0.511097 0)
(1.36646 0.399754 0)
(2.07642 0.65338 0)
(1.44032 0.51998 -1.02713e-19)
(2.08499 0.750715 0)
(1.59602 0.661803 0)
(2.06878 0.812305 0)
(1.6993 0.758903 0)
(2.02763 0.837272 0)
(1.75909 0.825324 0)
(1.96784 0.820302 0)
(1.7758 0.836668 0)
(1.89046 0.77202 0)
(1.75943 0.816395 0)
(1.79778 0.694598 0)
(1.72025 0.766682 0)
(1.69859 0.599071 0)
(1.66168 0.68685 0)
(1.59983 0.496716 0)
(1.5914 0.589383 0)
(1.50826 0.397343 0)
(1.51806 0.485116 0)
(1.42882 0.307862 0)
(1.44886 0.384373 0)
(1.36243 0.231215 0)
(1.38797 0.295047 0)
(1.30853 0.168495 0)
(1.3366 0.220102 0)
(1.26586 0.119214 0)
(1.29455 0.159831 0)
(1.23282 0.0818426 0)
(1.2611 0.113058 0)
(1.20781 0.0543536 0)
(1.23512 0.0777752 0)
(1.18929 0.0346811 0)
(1.21535 0.0518138 0)
(1.17584 0.0209972 0)
(1.20057 0.0332319 0)
(1.16623 0.0117423 0)
(1.18975 0.0203198 0)
(1.1595 0.00568203 0)
(1.18195 0.0115252 0)
(1.15487 0.0018973 0)
(1.17644 0.00577359 0)
(1.1517 -0.000339353 0)
(1.1726 0.00219523 0)
(1.14957 -0.00155956 0)
(1.16991 3.77538e-05 0)
(1.14816 -0.00212339 0)
(1.16807 -0.00115576 0)
(1.14724 -0.00228705 0)
(1.16682 -0.00172845 0)
(1.14665 -0.00222077 0)
(1.16597 -0.00192628 0)
(1.14628 -0.0020306 0)
(1.1654 -0.00189952 0)
(1.14606 -0.00178236 0)
(1.16503 -0.00175065 0)
(1.14593 -0.0015158 0)
(1.16478 -0.00154304 0)
(1.14586 -0.00125506 0)
(1.16463 -0.00131464 0)
(1.14583 -0.00101306 0)
(1.16453 -0.00108735 0)
(1.14583 -0.000794167 0)
(1.16448 -0.000873514 0)
(1.14583 -0.000601332 0)
(1.16444 -0.000676516 0)
(1.14584 -0.000412797 0)
(1.16443 -0.00050395 0)
(1.16441 -0.000308536 0)
(1.00373 0.0217024 0)
(1.00091 0.00922446 0)
(1.01458 0.0414947 0)
(1.00628 0.0277306 0)
(1.03063 0.057501 0)
(1.01805 0.0438077 0)
(1.0497 0.0691709 0)
(1.03408 0.0562247 0)
(1.07007 0.0767912 0)
(1.05218 0.0649709 0)
(1.09047 0.0809123 0)
(1.07098 0.0704309 0)
(1.11002 0.082052 0)
(1.08971 0.0730496 0)
(1.12797 0.0806357 0)
(1.10767 0.0732188 0)
(1.14373 0.0771676 0)
(1.12425 0.0712996 0)
(1.15725 0.0721144 0)
(1.13903 0.0677704 0)
(1.16868 0.065695 0)
(1.152 0.0629089 0)
(1.17785 0.0580316 0)
(1.16313 0.056704 0)
(1.18485 0.0492309 0)
(1.17218 0.0492816 0)
(1.1899 0.0392322 0)
(1.17936 0.0408294 0)
(1.19316 0.027911 0)
(1.18453 0.0312606 0)
(1.19488 0.0151156 0)
(1.18805 0.0202869 0)
(1.19527 0.000677336 0)
(1.18983 0.0076534 0)
(1.19461 -0.0156306 0)
(1.19005 -0.00685915 0)
(1.19311 -0.0343101 0)
(1.18892 -0.0235723 0)
(1.19091 -0.0559884 0)
(1.18641 -0.0430339 0)
(1.18832 -0.0813346 0)
(1.18274 -0.0658921 0)
(1.18603 -0.111556 0)
(1.17811 -0.0929445 0)
(1.18452 -0.148241 0)
(1.17299 -0.125765 0)
(1.1842 -0.192903 0)
(1.16759 -0.166052 0)
(1.18621 -0.247769 0)
(1.16233 -0.215695 2.3121e-32)
(1.19238 -0.315902 0)
(1.15838 -0.277723 -2.28563e-32)
(1.20559 -0.400772 0)
(1.15758 -0.355853 0)
(1.23046 -0.506386 0)
(1.16306 -0.454722 0)
(1.27428 -0.637175 0)
(1.17996 -0.579967 0)
(1.34853 -0.79751 0)
(1.21665 -0.738369 0)
(1.47011 -0.987972 0)
(1.28725 -0.936145 0)
(1.62167 -1.13125 0)
(1.38794 -1.13679 0)
(1.67336 -1.13442 0)
(1.38102 -1.12935 0)
(1.52938 -0.930462 0)
(1.14221 -0.895636 0)
(1.21135 -0.550879 0)
(0.735565 -0.39085 0)
(0.827962 -0.192653 4.97756e-18)
(0.504651 0.139133 0)
(0.44844 -0.00634601 4.97756e-18)
(0.286251 -0.187853 4.97756e-18)
(0.408834 0.0556206 -2.88949e-17)
(0.153211 -0.333219 0)
(0.595494 0.116459 -2.88949e-17)
(0.227221 -0.448186 -2.88949e-17)
(0.703711 0.261701 -1.02713e-19)
(0.344371 -0.571859 0)
(0.953557 0.471688 -1.02713e-19)
(0.433307 0.212624 -1.02713e-19)
(1.20553 0.646234 0)
(0.672327 0.409832 0)
(1.38638 0.759033 0)
(0.897514 0.578048 0)
(1.5039 0.815985 0)
(1.1081 0.707808 0)
(1.56622 0.827026 0)
(1.2566 0.774347 0)
(1.59045 0.808225 0)
(1.34695 0.792165 0)
(1.58456 0.756941 0)
(1.39976 0.772566 0)
(1.55513 0.675179 0)
(1.42195 0.716284 0)
(1.51098 0.576407 0)
(1.42026 0.633534 0)
(1.45986 0.471751 0)
(1.40185 0.536233 0)
(1.40901 0.371953 0)
(1.37439 0.435229 0)
(1.36285 0.284659 0)
(1.34445 0.3412 0)
(1.32304 0.212168 0)
(1.31571 0.259921 0)
(1.29 0.154311 0)
(1.28998 0.192868 0)
(1.26348 0.109529 0)
(1.26802 0.139582 0)
(1.24267 0.0756745 0)
(1.25003 0.098584 0)
(1.22664 0.0507043 0)
(1.23564 0.0678432 0)
(1.21448 0.0328099 0)
(1.2244 0.0453877 0)
(1.20544 0.0203052 0)
(1.2158 0.0293657 0)
(1.19889 0.011773 0)
(1.20933 0.0180671 0)
(1.19418 0.00616925 0)
(1.2045 0.0104879 0)
(1.1908 0.00262881 0)
(1.2011 0.00557826 0)
(1.18842 0.000484876 0)
(1.19858 0.00241581 0)
(1.18673 -0.000723424 0)
(1.19675 0.000530183 0)
(1.18555 -0.0013371 0)
(1.19542 -0.000545156 0)
(1.18472 -0.00158136 0)
(1.19446 -0.00110078 0)
(1.18415 -0.00160362 0)
(1.19377 -0.00132782 0)
(1.18376 -0.0015011 0)
(1.19328 -0.00135556 0)
(1.18349 -0.00133485 0)
(1.19293 -0.00127171 0)
(1.1833 -0.00114182 0)
(1.19267 -0.00112999 0)
(1.18318 -0.00094421 0)
(1.19249 -0.00096301 0)
(1.18309 -0.000753595 0)
(1.19237 -0.00079074 0)
(1.18304 -0.000578072 0)
(1.19228 -0.000622087 0)
(1.183 -0.000399601 0)
(1.19222 -0.00046863 0)
(1.19217 -0.000287385 0)
(1.00259 0.015659 0)
(1.00066 0.00663735 0)
(1.01032 0.0302727 0)
(1.00455 0.0200014 0)
(1.02218 0.04255 0)
(1.01325 0.0319486 0)
(1.03685 0.0519287 0)
(1.02548 0.0415499 0)
(1.0532 0.0584628 0)
(1.03983 0.0486171 0)
(1.07031 0.0624157 0)
(1.05533 0.0533226 0)
(1.08745 0.0640873 0)
(1.07132 0.0559164 0)
(1.10401 0.0637807 0)
(1.08726 0.0566508 0)
(1.11954 0.0618246 0)
(1.10261 0.0557693 0)
(1.13377 0.0585041 0)
(1.11702 0.0535477 0)
(1.1465 0.0539303 0)
(1.13024 0.050173 0)
(1.15752 0.0481469 0)
(1.1421 0.0456908 0)
(1.16666 0.0412119 0)
(1.15233 0.0401379 0)
(1.17397 0.0331443 0)
(1.16085 0.0335169 0)
(1.17944 0.0238039 0)
(1.16756 0.0257954 0)
(1.18301 0.0129458 0)
(1.17244 0.0167121 0)
(1.18464 0.000296367 0)
(1.17531 0.00601969 0)
(1.18435 -0.0145028 0)
(1.17607 -0.00656709 0)
(1.1822 -0.0318764 0)
(1.17463 -0.0214186 0)
(1.17819 -0.0524015 0)
(1.1709 -0.0390247 0)
(1.17237 -0.0768545 0)
(1.16477 -0.0600699 0)
(1.16489 -0.106376 0)
(1.15613 -0.0854675 0)
(1.15574 -0.142599 0)
(1.14484 -0.116616 0)
(1.14503 -0.187595 2.3121e-32)
(1.13069 -0.155346 0)
(1.13337 -0.244098 2.80586e-34)
(1.11359 -0.204032 2.3121e-32)
(1.12173 -0.315827 -2.28563e-32)
(1.09375 -0.266077 -2.28563e-32)
(1.112 -0.407707 0)
(1.07182 -0.346133 0)
(1.10777 -0.526114 0)
(1.04949 -0.450486 0)
(1.11522 -0.679279 0)
(1.02978 -0.587423 0)
(1.14437 -0.874518 0)
(1.02039 -0.767516 0)
(1.2004 -1.08001 0)
(1.02614 -0.992176 0)
(1.16271 -1.1235 0)
(1.00213 -1.0991 0)
(0.841839 -0.832343 0)
(0.698867 -0.808478 0)
(0.484821 -0.357418 0)
(0.321707 0.622059 0)
(0.432763 -0.0602355 0)
(0.0329435 0.228579 0)
(0.208366 0 0)
(0 -0.0808204 0)
(0.078555 0 0)
(0 -0.0113636 0)
(0.0596347 0 0)
(0 0.000757702 0)
(0.0777611 0 0)
(0 0.00955642 0)
(0.37369 0.046839 0)
(0 0.0146912 0)
(0.149104 0.166076 0)
(0.0258026 -0.295093 0)
(0.330747 0.339077 0)
(0.0608011 0.128362 -1.54031e-18)
(0.617711 0.524703 0)
(0.251825 0.291085 -1.59046e-17)
(0.859158 0.662056 0)
(0.482318 0.466361 0)
(1.03442 0.735118 0)
(0.702592 0.599083 0)
(1.15596 0.75382 0)
(0.870837 0.670625 0)
(1.23826 0.731366 0)
(0.998968 0.690266 0)
(1.28806 0.675033 0)
(1.09429 0.666489 0)
(1.31244 0.594034 0)
(1.16163 0.609149 0)
(1.31796 0.500275 0)
(1.20454 0.530711 0)
(1.31122 0.404725 0)
(1.22912 0.44197 0)
(1.29834 0.316612 0)
(1.24068 0.354086 0)
(1.28328 0.240853 0)
(1.24403 0.274975 0)
(1.26832 0.178492 0)
(1.2427 0.207826 0)
(1.25472 0.129039 0)
(1.23891 0.153183 0)
(1.24305 0.0911109 0)
(1.23416 0.110257 0)
(1.23342 0.062804 0)
(1.2293 0.0774702 0)
(1.22569 0.0421584 0)
(1.22481 0.0531232 0)
(1.21962 0.0273064 0)
(1.22088 0.0354367 0)
(1.21494 0.0169186 0)
(1.21761 0.0227392 0)
(1.21142 0.0100003 0)
(1.21487 0.0140157 0)
(1.20885 0.00545616 0)
(1.21279 0.00814525 0)
(1.20692 0.00252499 0)
(1.21111 0.00434436 0)
(1.20544 0.000742607 0)
(1.20985 0.0020148 0)
(1.20433 -0.000286868 0)
(1.20883 0.000561529 0)
(1.20351 -0.000828233 0)
(1.20802 -0.000278749 0)
(1.2029 -0.00106259 0)
(1.2074 -0.000719027 0)
(1.20245 -0.001113 0)
(1.20691 -0.000904362 0)
(1.20211 -0.00105735 0)
(1.20654 -0.0009378 0)
(1.20187 -0.000944473 0)
(1.20626 -0.000883518 0)
(1.20169 -0.000804793 0)
(1.20604 -0.000781966 0)
(1.20155 -0.000655885 0)
(1.20587 -0.000658656 0)
(1.20146 -0.000510256 0)
(1.20575 -0.000526843 0)
(1.20139 -0.000354901 0)
(1.20567 -0.000400665 0)
(1.20558 -0.000245289 0)
(1.00195 0.0112277 0)
(1.00051 0.00469042 0)
(1.0078 0.0218461 0)
(1.00353 0.0141442 0)
(1.01701 0.030998 0)
(1.01035 0.022747 0)
(1.0287 0.03821 0)
(1.02014 0.0298521 0)
(1.04208 0.043416 0)
(1.0319 0.0352414 0)
(1.05644 0.0467445 0)
(1.04493 0.0389589 0)
(1.07122 0.0483869 0)
(1.05867 0.0411372 0)
(1.08592 0.048543 0)
(1.07268 0.0419523 0)
(1.10012 0.0474116 0)
(1.0865 0.0415697 0)
(1.11352 0.0451674 0)
(1.09977 0.0401485 0)
(1.12588 0.0419053 0)
(1.11224 0.0378161 0)
(1.13695 0.0376576 0)
(1.12368 0.0346165 0)
(1.14654 0.0324277 0)
(1.13383 0.0305527 0)
(1.15447 0.0261778 0)
(1.1425 0.0255835 0)
(1.16063 0.0187528 0)
(1.1495 0.0196366 0)
(1.1648 0.00990326 0)
(1.15465 0.0125367 0)
(1.16679 -0.00064298 0)
(1.15772 0.00402907 0)
(1.1664 -0.013211 0)
(1.15837 -0.00617079 0)
(1.16339 -0.0282223 0)
(1.15633 -0.0184159 0)
(1.15754 -0.0462557 0)
(1.15125 -0.0331676 0)
(1.14853 -0.0681099 0)
(1.14272 -0.0510664 0)
(1.13606 -0.0949202 0)
(1.13025 -0.0729931 0)
(1.11966 -0.128279 0)
(1.11323 -0.100213 0)
(1.09881 -0.170345 0)
(1.09086 -0.134502 0)
(1.0731 -0.224131 0)
(1.06224 -0.17832 3.10401e-33)
(1.04221 -0.293914 0)
(1.02631 -0.23519 -3.09895e-33)
(1.00626 -0.385711 0)
(0.982009 -0.310185 0)
(0.966372 -0.507901 0)
(0.928502 -0.410595 0)
(0.925727 -0.671389 0)
(0.864949 -0.546777 0)
(0.888249 -0.882147 0)
(0.796999 -0.730037 0)
(0.832574 -1.01236 0)
(0.703352 -0.936501 0)
(0.570085 -0.78105 0)
(0.498267 -0.836611 -3.11939e-16)
(1.743 -0.26835 0)
(0.0902065 -0.337031 -4.5864e-18)
(0.326639 0 0)
(0 -0.218311 0)
(0.0322336 0 0)
(0 -0.029098 0)
(5.34365e-05 0 0)
(0 1.49377e-06 0)
(0.000154139 0 0)
(0 8.47475e-07 0)
(0.000456272 0 0)
(0 9.78695e-06 0)
(0.000711353 0 0)
(0 1.65982e-05 0)
(0.0073814 0 0)
(0 -0.00156478 0)
(0.188743 0.0233989 -1.54031e-18)
(0 0.00604512 0)
(-0.0722307 0.102281 -1.74449e-17)
(-0.0596488 -0.235457 -1.54031e-18)
(0.0914747 0.249942 -1.59046e-17)