/*--------------------------------*- C++ -*----------------------------------*\
| =========                 |                                                 |
| \\      /  F ield         | foam-extend: Open Source CFD                    |
|  \\    /   O peration     | Version:     4.1                                |
|   \\  /    A nd           | Web:         http://www.foam-extend.org         |
|    \\/     M anipulation  |                                                 |
\*---------------------------------------------------------------------------*/
FoamFile
{
    version     2.0;
    format      ascii;
    class       volScalarField;
    location    "0.09";
    object      p;
}
// * * * * * * * * * * * * * * * * * * * * * * * * * * * * * * * * * * * * * //

dimensions      [0 2 -2 0 0 0 0];

internalField   nonuniform List<scalar> 
15000
(
0
0
0
0
0
0
0
0
0
0
0
0
0
0
0
0
0
0
0
0
0
0
0
0
0
0
0
0
0
0
0
0
0
0
0
0
0
0
0
0
0
0
0
0
0
0
0
0
0
0
0
0
0
0
0
0
0
0
0
0
0
0
0
0
0
0
0
0
0
0
0
0
0
0
0
0
0
0
0
0
0
0
0
0
0
0
0
0
0
0
0
0
0
0
0
0
0
0
0
0
0
0
0
0
0
0
0
0
0
0
0
0
0
0
0
0
0
0
0
0
0
0
0
0
0
0
0
0
0
0
0
0
0
0
0
0
0
0
0
0
0
0
0
0
0
0
0
0
0
0
0
0
0
0
0
0
0
0
0
0
0
0
0
0
0
0
0
0
0
0
0
0
0
0
0
0
0
0
0
0
0
0
0
0
0
0
0
0
0
0
0
0
0
0
0
0
0
0
0
0
0
0
0
0
0
0
0
0
0
0
0
0
0
0
0
0
0
0
0
0
0
0
0
0
0
0
0
0
0
0
0
0
0
0
0
0
0
0
0
0
0
0
0
0
0
0
0
0
0
0
0
0
0
0
0
0
0
0
0
0
0
0
0
0
0
0
0
0
0
0
0
0
0
0
0
0
0
0
0
0
0
0
0
0
0
0
0
0
0
0
0
0
0
0
0
0
0
0
0
0
0
0
0
0
0
0
0
0
0
0
0
0
0
0
0
0
0
0
0
0
0
0
0
0
0
0
0
0
0
0
0
0
0
0
0
0
0
0
0
0
0
0
0
0
0
0
0
0
0
0
0
0
0
0
0
0
0
0
0
0
0
0
0
0
0
0
0
0
0
0
0
0
0
0
0
0
0
0
0
0
0
0
0
0
0
0
0
0
0
0
0
0
0
0
0
0
0
0
0
0
0
0
0
0
0
0
0
0
0
0
0
0
0
0
0
0
0
0
0
0
0
0
0
0
0
0
0
0
0
0
0
0
0
0
0
0
0
0
0
0
0
0
0
0
0
0
0
0
0
0
0
0
0
0
0
0
0
0
0
0
0
0
0
0
0
0
0
0
0
0
0
0
0
0
0
0
0
0
0
0
0
0
0
0
0
0
0
0
0
0
0
0
0
0
0
0
0
0
0
0
0
0
0
0
0
0
0
0
0
0
0
0
0
0
0
0
0
0
0
0
0
0
0
0
0
0
0
0
0
0
0
0
0
0
0
0
0
0
0
0
0
0
0
0
0
0
0
0
0
0
0
0
0
0
0
0
0
0
0
0
0
0
0
0
0
0
0
0
0
0
0
0
0
0
0
0
0
0
0
0
0
0
0
0
0
0
0
0
0
0
0
0
0
0
0
0
0
0
0
0
0
0
0
0
0
0
0
0
0
0
0
0
0
0
0
0
0
0
0
0
0
0
0
0
0
0
0
0
0
0
0
0
0
0
0
0
0
0
0
0
0
0
0
0
0
0
0
0
0
0
0
0
0
0
0
0
0
0
0
0
0
0
0
0
0
0
0
0
0
0
0
0
0
0
0
0
0
0
0
0
0
0
0
0
0
0
0
0
0
0
0
0
0
0
0
0
0
0
0
0
0
0
0
0
0
0
0
0
0
0
0
0
0
0
0
0
0
0
0
0
0
0
0
0
0
0
0
0
0
0
0
0
0
0
0
0
0
0
0
0
0
0
0
0
0
0
0
0
0
0
0
0
0
0
0
0
0
0
0
0
0
0
0
0
0
0
0
0
0
0
0
0
0
0
0
0
0
0
0
0
0
0
0
0
0
0
0
0
0
0
0
0
0
0
0
0
0
0
0
0
0
0
0
0
0
0
0
0
0
0
0
0
0
0
0
0
0
0
0
0
0
0
0
0
0
0
0
0
0
0
0
0
0
0
0
0
0
0
0
0
0
0
0
0
0
0
0
0
0
0
0
0
0
0
0
0
0
0
0
0
0
0
0
0
0
0
0
0
0
0
0
0
0
0
0
0
0
0
0
0
0
0
0
0
0
0
0
0
0
0
0
0
0
0
0
0
0
0
0
0
0
0
0
0
0
0
0
0
0
0
0
0
0
0
0
0
0
0
0
0
0
0
0
0
0
0
0
0
0
0
0
0
0
0
0
0
0
0
0
0
0
0
0
0
0
0
0
0
0
0
0
0
0
0
0
0
0
0
0
0
0
0
0
0
0
0
0
0
0
0
0
0
0
0
0
0
0
0
0
0
0
0
0
0
0
0
0
0
0
0
0
0
0
0
0
0
0
0
0
0
0
0
0
0
0
0
0
0
0
0
0
0
0
0
0
72.4288
72.39
72.2089
72.0301
71.9178
71.8976
71.9776
72.157
72.4307
72.7913
73.2312
73.7424
74.3173
74.9486
75.629
76.3518
77.1101
77.8972
78.706
79.5295
80.3611
81.1941
82.0221
82.8389
83.6389
84.4168
85.1679
85.8878
86.573
87.2201
87.8267
88.3904
88.9096
89.3829
89.8091
90.1876
90.5186
90.803
91.0434
91.2415
91.3969
91.5101
91.5825
91.614
91.604
91.5558
91.4747
91.3639
91.2263
91.0653
90.8817
90.6761
90.4503
90.2061
89.9455
89.6699
89.3812
89.0807
88.7699
88.4501
88.1226
87.7885
87.4489
87.1047
86.7568
86.406
86.0531
85.6987
85.3433
84.9876
84.6319
84.2767
83.9223
83.5691
83.2172
82.867
82.5186
82.1722
81.8279
81.4858
81.1459
80.8084
80.4732
80.1403
79.8098
79.4816
79.1558
78.8324
78.5112
78.1923
77.8756
77.561
77.2485
76.938
76.6294
76.3226
76.0175
75.7141
75.4124
75.1121
74.8133
74.5158
74.2196
73.9247
73.6309
73.3382
73.0465
72.7558
72.4659
72.177
71.8888
71.6013
71.3145
71.0284
70.7429
70.4579
70.1734
69.8894
69.6058
69.3227
69.0399
68.7574
68.4752
68.1933
67.9117
67.6303
67.3491
67.068
66.7871
66.5064
66.2258
65.9453
65.6649
65.3846
65.1044
64.8242
64.5441
64.264
63.984
63.704
63.4241
63.1441
62.8642
62.5843
62.3045
62.0247
61.7449
61.4652
61.1855
60.9059
60.6264
60.347
60.0677
59.7886
59.5097
59.231
58.9526
58.6745
58.3967
58.1192
57.8422
57.5654
57.2888
57.0123
56.7357
56.4586
56.181
55.9025
55.6322
55.4789
55.7968
55.4679
54.8597
0
0
0
0
0
0
0
0
0
0
0
0
0
0
0
0
0
0
0
0
0
0
0
0
0
0
0
0
0
0
0
0
0
0
0
0
0
0
0
0
0
0
0
0
0
0
0
0
0
0
0
0
0
0
0
0
0
0
0
0
0
0
0
0
0
0
0
0
0
0
0
0
0
0
0
0
0
72.4608
72.421
72.2981
72.1777
72.1084
72.1139
72.2047
72.3833
72.6472
72.992
73.4116
73.8997
74.4497
75.0549
75.7089
76.4051
77.1372
77.8984
78.6821
79.4815
80.29
81.1012
81.9089
82.707
83.49
84.2526
84.9902
85.6984
86.3735
87.0124
87.6123
88.1709
88.6866
89.1579
89.5835
89.9627
90.2956
90.5826
90.825
91.0246
91.1821
91.2983
91.3743
91.411
91.4095
91.3722
91.3023
91.2026
91.0756
90.9237
90.7481
90.5502
90.332
90.0952
89.8418
89.5733
89.2913
88.9973
88.6928
88.3791
88.0573
87.7287
87.3942
87.0549
86.7117
86.3652
86.0164
85.6658
85.314
84.9616
84.6091
84.2567
83.905
83.5543
83.2047
82.8566
82.5101
82.1654
81.8227
81.482
81.1434
80.8071
80.4729
80.141
79.8113
79.4839
79.1587
78.8359
78.5152
78.1967
77.8804
77.5661
77.2539
76.9435
76.635
76.3284
76.0234
75.7201
75.4183
75.118
74.8192
74.5217
74.2254
73.9304
73.6365
73.3437
73.0519
72.761
72.4711
72.182
71.8936
71.606
71.3191
71.0328
70.7471
70.462
70.1774
69.8932
69.6095
69.3262
69.0432
68.7606
68.4783
68.1963
67.9145
67.633
67.3516
67.0705
66.7895
66.5086
66.2279
65.9473
65.6668
65.3864
65.1061
64.8259
64.5457
64.2655
63.9855
63.7054
63.4254
63.1454
62.8655
62.5856
62.3058
62.026
61.7462
61.4665
61.1869
60.9074
60.6281
60.3488
60.0698
59.791
59.5124
59.2341
58.9562
58.6788
58.4018
58.1255
57.8498
57.5749
57.3011
57.0285
56.7579
56.4907
56.23
55.9826
55.7718
55.6825
55.7575
55.5772
55.1144
55.1202
54.8394
54.1418
53.568
53.0216
52.4473
51.8098
51.226
0
0
0
0
0
0
0
0
0
0
0
0
0
0
0
0
0
0
0
0
0
0
0
0
0
0
0
0
0
0
0
0
0
0
0
0
0
0
0
0
0
0
0
0
0
0
0
0
0
0
0
0
0
0
0
0
0
0
0
0
0
0
0
0
0
0
0
0
0
72.5988
72.5063
72.3928
72.2977
72.2527
72.2754
72.3747
72.5533
72.8105
73.1431
73.5465
74.0155
74.5445
75.1278
75.7592
76.4328
77.1425
77.8818
78.6444
79.4235
80.2129
81.0061
81.7972
82.58
83.3492
84.0995
84.8261
85.5249
86.192
86.8243
87.4188
87.9735
88.4867
88.9569
89.3823
89.7623
90.0969
90.3863
90.6311
90.8327
90.9922
91.1109
91.1902
91.2315
91.237
91.2085
91.1478
91.0571
90.9386
90.794
90.6251
90.4338
90.2221
89.9918
89.7446
89.4823
89.2062
88.918
88.6191
88.3107
87.994
87.6703
87.3406
87.0057
86.6667
86.3243
85.9792
85.6322
85.2838
84.9345
84.5849
84.2353
83.8861
83.5377
83.1904
82.8443
82.4997
82.1567
81.8156
81.4763
81.1391
80.8039
80.4708
80.1399
79.8111
79.4844
79.16
78.8377
78.5176
78.1997
77.8837
77.5698
77.2579
76.9478
76.6396
76.3331
76.0283
75.7251
75.4234
75.1231
74.8243
74.5268
74.2306
73.9355
73.6416
73.3487
73.0568
72.7659
72.4758
72.1866
71.8981
71.6104
71.3234
71.037
70.7512
70.4659
70.1812
69.8969
69.613
69.3296
69.0465
68.7638
68.4813
68.1992
67.9173
67.6356
67.3542
67.0729
66.7918
66.5108
66.23
65.9493
65.6688
65.3883
65.1079
64.8275
64.5473
64.2671
63.9869
63.7068
63.4268
63.1468
62.8668
62.5869
62.307
62.0273
61.7475
61.4679
61.1884
60.909
60.6297
60.3506
60.0718
59.7932
59.515
59.2371
58.9597
58.6829
58.4067
58.1314
57.8571
57.584
57.3127
57.0436
56.7779
56.5174
56.2657
56.0285
55.8189
55.6667
55.5581
55.3464
55.0303
54.8433
54.5396
54.0682
53.615
53.1683
52.7068
52.2011
51.6254
51.4205
50.6912
49.9838
49.3481
48.6997
48.0192
47.2535
46.4317
0
0
0
0
0
0
0
0
0
0
0
0
0
0
0
0
0
0
0
0
0
0
0
0
0
0
0
0
0
0
0
0
0
0
0
0
0
0
0
0
0
0
0
0
0
0
0
0
0
0
0
0
0
0
0
0
0
0
0
0
0
72.7681
72.6036
72.4748
72.3856
72.3518
72.3845
72.4893
72.6683
72.9206
73.244
73.6348
74.0888
74.601
75.1664
75.7795
76.4346
77.1261
77.8478
78.5933
79.3564
80.1308
80.9101
81.6883
82.4594
83.218
83.9589
84.6773
85.369
86.0301
86.6573
87.248
87.8002
88.3122
88.7817
89.2071
89.5879
89.9239
90.2156
90.4633
90.6682
90.8314
90.9541
91.0377
91.0838
91.0942
91.0708
91.0154
90.9301
90.8169
90.6776
90.5141
90.3283
90.1221
89.8972
89.6553
89.3982
89.1272
88.844
88.5498
88.2461
87.9339
87.6145
87.2889
86.958
86.6227
86.2839
85.9423
85.5985
85.2531
84.9067
84.5598
84.2128
83.866
83.5199
83.1746
82.8304
82.4876
82.1464
81.8068
81.4689
81.133
80.799
80.4671
80.1371
79.8092
79.4834
79.1597
78.8381
78.5186
78.2011
77.8857
77.5722
77.2606
76.9509
76.6429
76.3367
76.032
75.729
75.4274
75.1273
74.8286
74.5311
74.2349
73.9398
73.6459
73.353
73.0611
72.7701
72.48
72.1907
71.9022
71.6144
71.3273
71.0408
70.7549
70.4695
70.1847
69.9003
69.6163
69.3328
69.0496
68.7667
68.4842
68.2019
67.9199
67.6381
67.3566
67.0752
66.794
66.513
66.2321
65.9513
65.6706
65.3901
65.1096
64.8292
64.5489
64.2686
63.9884
63.7082
63.4281
63.1481
62.8681
62.5882
62.3083
62.0285
61.7488
61.4692
61.1897
60.9104
60.6312
60.3523
60.0736
59.7952
59.5172
59.2397
58.9627
58.6864
58.4109
58.1365
57.8633
57.5918
57.3223
57.0558
56.7932
56.5364
56.2879
56.0514
55.8319
55.637
55.4508
55.2098
54.9148
54.6354
54.2914
53.857
53.4036
52.9412
52.467
51.978
51.4798
51.0601
50.5115
49.9748
49.4441
48.9036
48.3433
47.7228
47.0555
46.8504
45.8971
45.1285
44.4086
43.6608
42.8737
41.9697
41.029
0
0
0
0
0
0
0
0
0
0
0
0
0
0
0
0
0
0
0
0
0
0
0
0
0
0
0
0
0
0
0
0
0
0
0
0
0
0
0
0
0
0
0
0
0
0
0
0
0
0
0
0
0
72.9213
72.6832
72.5272
72.4339
72.4033
72.4409
72.5492
72.7284
72.9775
73.2943
73.6758
74.1184
74.6178
75.1695
75.7685
76.4094
77.087
77.7951
78.5279
79.2791
80.0425
80.8117
81.5806
82.3435
83.0946
83.8289
84.5416
85.2282
85.885
86.5089
87.0975
87.649
88.1604
88.6294
89.0549
89.4364
89.7738
90.0673
90.3173
90.5249
90.6911
90.817
90.9042
90.954
90.9682
90.9488
90.8975
90.8164
90.7074
90.5725
90.4135
90.2322
90.0304
89.81
89.5726
89.3198
89.0531
88.7741
88.484
88.1843
87.876
87.5604
87.2384
86.911
86.5792
86.2436
85.905
85.5642
85.2216
84.8779
84.5336
84.1889
83.8444
83.5004
83.1571
82.8148
82.4738
82.1342
81.7961
81.4597
81.1251
80.7923
80.4615
80.1326
79.8056
79.4807
79.1577
78.8368
78.518
78.2011
77.8862
77.5732
77.262
76.9527
76.645
76.3391
76.0347
75.7319
75.4305
75.1305
74.8319
74.5346
74.2384
73.9435
73.6496
73.3567
73.0648
72.7738
72.4837
72.1943
71.9058
71.6179
71.3308
71.0442
70.7582
70.4728
70.1879
69.9034
69.6194
69.3357
69.0524
68.7695
68.4869
68.2045
67.9224
67.6406
67.3589
67.0775
66.7962
66.5151
66.2341
65.9532
65.6725
65.3918
65.1113
64.8308
64.5504
64.2701
63.9898
63.7096
63.4295
63.1494
62.8693
62.5894
62.3095
62.0297
61.75
61.4704
61.1909
60.9116
60.6325
60.3537
60.0751
59.7969
59.5191
59.2418
58.9651
58.6892
58.4142
58.1403
57.8679
57.5973
57.3291
57.0638
56.8026
56.5466
56.2975
56.0569
55.8263
55.6053
55.3806
55.118
54.8159
54.5004
54.136
53.711
53.2609
52.7962
52.3184
51.8294
51.3334
50.8376
50.3212
49.783
49.2308
48.6679
48.0945
47.5059
46.9298
46.4434
45.779
45.154
44.5381
43.9084
43.2514
42.5105
41.7449
41.6245
40.435
39.525
38.6994
37.8359
36.9161
35.8723
35.1939
0
0
0
0
0
0
0
0
0
0
0
0
0
0
0
0
0
0
0
0
0
0
0
0
0
0
0
0
0
0
0
0
0
0
0
0
0
0
0
0
0
0
0
0
0
73.0243
72.7219
72.5366
72.435
72.4038
72.4436
72.5542
72.7341
72.9815
73.2943
73.6697
74.1045
74.595
75.137
75.7259
76.3568
77.0243
77.7231
78.4473
79.1906
79.9467
80.7093
81.4723
82.2298
82.9761
83.7063
84.4153
85.0986
85.7529
86.3757
86.9643
87.5154
88.0262
88.495
88.9208
89.303
89.6415
89.9364
90.1882
90.3977
90.5661
90.6944
90.7841
90.8368
90.854
90.8378
90.7898
90.7122
90.6067
90.4753
90.3199
90.1423
89.9442
89.7275
89.4938
89.2447
88.9817
88.7063
88.4198
88.1236
87.8187
87.5064
87.1877
86.8635
86.5347
86.2021
85.8664
85.5283
85.1884
84.8472
84.5053
84.163
83.8206
83.4787
83.1374
82.797
82.4577
82.1197
81.7832
81.4482
81.115
80.7835
80.4538
80.126
79.8002
79.4761
79.154
78.8338
78.5157
78.1995
77.8852
77.5727
77.262
76.9531
76.6459
76.3403
76.0362
75.7337
75.4326
75.1328
74.8344
74.5372
74.2412
73.9463
73.6525
73.3597
73.0679
72.7769
72.4868
72.1975
71.909
71.6211
71.3339
71.0473
70.7613
70.4758
70.1908
69.9063
69.6222
69.3385
69.0552
68.7721
68.4894
68.207
67.9248
67.6429
67.3612
67.0797
66.7983
66.5171
66.236
65.9551
65.6743
65.3936
65.1129
64.8324
64.5519
64.2716
63.9912
63.711
63.4308
63.1506
62.8706
62.5906
62.3106
62.0308
61.7511
61.4715
61.192
60.9127
60.6336
60.3548
60.0763
59.7981
59.5204
59.2432
58.9667
58.6909
58.4162
58.1426
57.8705
57.6003
57.3323
57.0672
56.8056
56.5482
56.2958
56.0486
55.8056
55.5636
55.3119
55.0315
54.719
54.3841
54.0099
53.5923
53.1494
52.6896
52.215
51.7275
51.2299
50.7245
50.2001
49.6541
49.0952
48.5261
47.9479
47.3626
46.784
46.2176
45.5889
44.9501
44.3052
43.6497
42.9821
42.297
41.6465
41.107
40.3034
39.5727
38.8617
38.1324
37.3694
36.5381
35.7972
35.0571
34.0286
33.0689
32.1034
31.0998
30.0285
28.812
28.1926
0
0
0
0
0
0
0
0
0
0
0
0
0
0
0
0
0
0
0
0
0
0
0
0
0
0
0
0
0
0
0
0
0
0
0
0
0
73.051
72.7005
72.4916
72.3814
72.3486
72.3901
72.5033
72.685
72.9329
73.2444
73.617
74.0477
74.5331
75.0694
75.6523
76.277
76.9387
77.6322
78.3517
79.0908
79.8431
80.6023
81.3622
82.117
82.8608
83.5889
84.296
84.9777
85.6319
86.2557
86.8442
87.3948
87.9053
88.3742
88.8005
89.1833
89.5226
89.8186
90.0716
90.2826
90.4525
90.5825
90.6741
90.7288
90.7484
90.7345
90.6891
90.6141
90.5114
90.3828
90.2303
90.0557
89.8607
89.647
89.4164
89.1705
88.9106
88.6384
88.3551
88.0619
87.7602
87.451
87.1352
86.814
86.488
86.1582
85.8253
85.4898
85.1525
84.8138
84.4742
84.1341
83.794
83.4541
83.1148
82.7763
82.4388
82.1025
81.7676
81.4342
81.1023
80.7722
80.4438
80.1172
79.7925
79.4695
79.1483
78.829
78.5116
78.1962
77.8825
77.5707
77.2606
76.9522
76.6455
76.3403
76.0366
75.7345
75.4337
75.1342
74.836
74.539
74.2432
73.9485
73.6549
73.3622
73.0704
72.7796
72.4895
72.2003
71.9117
71.6239
71.3367
71.0501
70.7641
70.4786
70.1936
69.909
69.6249
69.3411
69.0578
68.7747
68.4919
68.2094
67.9272
67.6452
67.3634
67.0818
66.8004
66.5191
66.238
65.957
65.6761
65.3953
65.1146
64.834
64.5535
64.273
63.9927
63.7123
63.4321
63.1519
62.8717
62.5917
62.3117
62.0318
61.752
61.4724
61.1929
60.9135
60.6344
60.3555
60.077
59.7988
59.521
59.2438
58.9673
58.6915
58.4167
58.143
57.8708
57.6002
57.3317
57.0655
56.8022
56.5418
56.2844
56.029
55.7737
55.5143
55.2424
54.9468
54.6239
54.2758
53.895
53.4805
53.0419
52.585
52.1126
51.6264
51.1284
50.6198
50.0929
49.5489
48.9928
48.4263
47.8501
47.2655
46.6783
46.0888
45.4593
44.8141
44.1605
43.4973
42.8251
42.1469
41.484
40.8293
40.0895
39.3467
38.6009
37.8433
37.0725
36.2924
35.5428
34.7853
33.9512
33.1248
32.2931
31.4434
30.5503
29.5737
28.788
27.8102
26.6523
25.5448
24.4213
23.254
21.9207
20.3413
0
0
0
0
0
0
0
0
0
0
0
0
0
0
0
0
0
0
0
0
0
0
0
0
0
0
0
0
0
0
72.9868
72.6059
72.3829
72.2665
72.2333
72.2779
72.3952
72.5811
72.8321
73.1456
73.519
73.9494
74.4337
74.9684
75.5491
76.1717
76.8317
77.524
78.2425
78.9807
79.7322
80.4908
81.2501
82.0044
82.7475
83.475
84.1822
84.8653
85.521
86.1449
86.7333
87.2839
87.7945
88.2636
88.6901
89.0734
89.4133
89.7098
89.9636
90.1754
90.3463
90.4775
90.5703
90.6265
90.6476
90.6354
90.5919
90.5189
90.4182
90.2919
90.1417
89.9695
89.777
89.566
89.338
89.0948
88.8378
88.5683
88.2878
87.9976
87.6987
87.3923
87.0794
86.761
86.4378
86.1107
85.7804
85.4476
85.1127
84.7765
84.4393
84.1016
83.7637
83.426
83.0887
82.7522
82.4166
82.0821
81.7489
81.4171
81.0868
80.7581
80.4311
80.1059
79.7823
79.4606
79.1405
78.8221
78.5057
78.191
77.8782
77.5671
77.2577
76.9499
76.6437
76.3391
76.0359
75.7341
75.4337
75.1346
74.8368
74.5401
74.2445
73.95
73.6566
73.3641
73.0725
72.7817
72.4918
72.2026
71.9142
71.6264
71.3393
71.0527
70.7667
70.4812
70.1962
69.9116
69.6275
69.3437
69.0603
68.7772
68.4944
68.2118
67.9296
67.6475
67.3657
67.084
66.8025
66.5212
66.24
65.9589
65.678
65.3971
65.1164
64.8357
64.5551
64.2746
63.9941
63.7137
63.4334
63.1531
62.8729
62.5928
62.3127
62.0328
61.7529
61.4732
61.1936
60.9141
60.6349
60.3559
60.0772
59.7989
59.521
59.2436
58.9668
58.6907
58.4155
58.1414
57.8684
57.5969
57.3271
57.059
56.7928
56.5282
56.2647
56.0009
55.7341
55.4602
55.1728
54.8646
54.5321
54.1747
53.789
53.3752
52.9384
52.4831
52.0117
51.5259
51.0271
50.5158
49.9886
49.4465
48.8921
48.3268
47.7513
47.1664
46.5743
45.9737
45.3469
44.7052
44.0539
43.3927
42.7219
42.0433
41.3653
40.6825
39.9476
39.1972
38.4402
37.6729
36.896
36.1155
35.3454
34.5527
33.7136
32.8591
31.9932
31.1137
30.2182
29.3128
28.4512
27.5415
26.5731
25.6052
24.6231
23.6034
22.4127
20.8917
20.738
20.2401
18.2961
16.7841
15.4385
14.0569
12.5429
11.0322
0
0
0
0
0
0
0
0
0
0
0
0
0
0
0
0
0
0
0
0
0
0
72.8285
72.4315
72.2033
72.0846
72.0542
72.1048
72.2295
72.4227
72.6805
72.9999
73.3781
73.8124
74.2998
74.8368
75.4195
76.044
76.7064
77.4013
78.122
78.8623
79.6156
80.376
81.1365
81.8921
82.6359
83.3649
84.0751
84.7599
85.4163
86.0405
86.6292
87.1799
87.6907
88.1599
88.5865
88.9698
89.3098
89.6065
89.8605
90.0726
90.2439
90.3756
90.4691
90.526
90.548
90.537
90.4947
90.4231
90.3241
90.1995
90.0511
89.8809
89.6905
89.4818
89.2562
89.0154
88.7609
88.494
88.2162
87.9287
87.6325
87.3289
87.0188
86.7031
86.3826
86.0583
85.7307
85.4005
85.0683
84.7346
84.3998
84.0645
83.729
83.3935
83.0585
82.7241
82.3905
82.058
81.7266
81.3966
81.068
80.741
80.4155
80.0917
79.7695
79.4491
79.1303
78.813
78.4976
78.1839
77.872
77.5617
77.2531
76.9461
76.6405
76.3365
76.0339
75.7327
75.4327
75.1341
74.8366
74.5403
74.2451
73.9509
73.6577
73.3654
73.074
72.7834
72.4937
72.2046
71.9163
71.6286
71.3415
71.0551
70.7691
70.4836
70.1987
69.9141
69.63
69.3462
69.0627
68.7796
68.4968
68.2142
67.9319
67.6498
67.3679
67.0862
66.8047
66.5233
66.242
65.9609
65.6799
65.399
65.1181
64.8374
64.5567
64.2761
63.9956
63.7151
63.4347
63.1544
62.8741
62.5939
62.3137
62.0336
61.7537
61.4738
61.1941
60.9145
60.6351
60.3559
60.077
59.7984
59.5202
59.2424
58.9651
58.6885
58.4126
58.1376
57.8635
57.5905
57.3187
57.0479
56.778
56.5085
56.2384
55.9661
55.6888
55.4027
55.1029
54.7842
54.4433
54.0791
53.6897
53.2755
52.8398
52.3855
51.9149
51.4294
50.9301
50.4173
49.8898
49.3484
48.7945
48.2292
47.6532
47.0671
46.4715
45.8645
45.239
44.5995
43.949
43.2882
42.6174
41.9375
41.2513
40.5546
39.8245
39.0784
38.323
37.5568
36.7799
35.9947
35.2056
34.3946
33.5492
32.6857
31.8088
30.9186
30.0166
29.1105
28.2145
27.2784
26.2962
25.2938
24.2732
23.23
22.1261
20.9758
20.3501
19.5118
18.1496
16.8977
15.7125
14.5081
13.1901
11.6927
11.1978
9.89208
7.94691
6.26734
4.66127
2.73159
-0.228413
0
0
0
0
0
0
0
0
0
0
0
0
0
0
0
72.5767
72.1735
71.9472
71.8314
71.8087
71.8699
72.0063
72.2115
72.4807
72.8106
73.1982
73.6409
74.1357
74.6791
75.2674
75.8983
76.5673
77.2679
77.9936
78.7386
79.4956
80.2595
81.0226
81.7806
82.5287
83.2606
83.9725
84.6589
85.3163
85.941
86.53
87.0809
87.5915
88.0604
88.4867
88.8696
89.2091
89.5054
89.759
89.9708
90.1419
90.2734
90.367
90.4241
90.4466
90.4361
90.3946
90.324
90.226
90.1027
89.9559
89.7873
89.5988
89.392
89.1686
88.9301
88.6779
88.4136
88.1383
87.8534
87.56
87.2591
86.9518
86.6389
86.3213
85.9997
85.6749
85.3475
85.018
84.687
84.355
84.0222
83.6892
83.3562
83.0235
82.6914
82.36
82.0296
81.7004
81.3723
81.0456
80.7203
80.3966
80.0744
79.7538
79.4348
79.1175
78.8016
78.4873
78.1747
77.8638
77.5545
77.2468
76.9406
76.6359
76.3326
76.0307
75.7301
75.4307
75.1326
74.8356
74.5397
74.2449
73.951
73.6581
73.3662
73.075
72.7847
72.4951
72.2063
71.9181
71.6306
71.3436
71.0572
70.7714
70.486
70.201
69.9165
69.6324
69.3486
69.0652
68.7821
68.4992
68.2167
67.9343
67.6522
67.3703
67.0885
66.8069
66.5255
66.2442
65.963
65.6819
65.4009
65.12
64.8392
64.5585
64.2778
63.9972
63.7166
63.4361
63.1556
62.8753
62.5949
62.3146
62.0344
61.7543
61.4743
61.1943
60.9145
60.6349
60.3554
60.0762
59.7972
59.5185
59.2402
58.9623
58.6849
58.408
58.1317
57.8561
57.5811
57.3067
57.0326
56.7585
56.4837
56.2069
55.9263
55.6394
55.3429
55.0328
54.7051
54.3572
53.9875
53.5951
53.1802
52.745
52.2915
51.8216
51.3365
50.8371
50.3238
49.7964
49.2553
48.7017
48.1363
47.5598
46.9724
46.3741
45.7636
45.1379
44.4986
43.8478
43.1862
42.5141
41.8318
41.1398
40.4345
39.7065
38.9629
38.2079
37.4412
36.663
35.874
35.0746
34.2561
33.4125
32.5513
31.6758
30.7863
29.8833
28.9701
28.0504
27.0972
26.1074
25.0956
24.066
23.0204
21.9551
20.8984
20.0036
19.0066
17.7744
16.5337
15.3066
14.0668
12.7847
11.4719
10.4984
9.25073
7.75391
6.28421
4.7826
2.88087
0.296623
0
0
0
0
0
0
0
0
0
0
0
0
0
0
0
72.2316
71.8291
71.6105
71.5036
71.4946
71.5726
71.7269
71.9499
72.2363
72.5821
72.9842
73.4401
73.9467
74.5006
75.0994
75.7405
76.4195
77.1285
77.8613
78.6129
79.3748
80.1428
80.9118
81.6741
82.4255
83.1604
83.8742
84.5621
85.2203
85.8455
86.4345
86.9849
87.4949
87.963
88.3883
88.7701
89.1085
89.4037
89.6563
89.8671
90.0373
90.1682
90.2612
90.318
90.3403
90.3299
90.2887
90.2186
90.1215
89.9992
89.8536
89.6865
89.4996
89.2946
89.0732
88.8369
88.5871
88.3252
88.0525
87.7703
87.4797
87.1817
86.8772
86.5673
86.2526
85.9341
85.6122
85.2878
84.9612
84.6331
84.3039
83.974
83.6437
83.3134
82.9833
82.6537
82.3248
81.9967
81.6697
81.3438
81.0192
80.696
80.3741
80.0538
79.7349
79.4176
79.1018
78.7875
78.4745
78.1632
77.8535
77.5454
77.2387
76.9335
76.6297
76.3273
76.0261
75.7263
75.4276
75.1301
74.8336
74.5383
74.2439
73.9505
73.658
73.3664
73.0756
72.7855
72.4962
72.2076
71.9197
71.6323
71.3455
71.0592
70.7735
70.4882
70.2033
69.9189
69.6348
69.3511
69.0677
68.7846
68.5017
68.2192
67.9368
67.6546
67.3727
67.0909
66.8093
66.5278
66.2464
65.9652
65.684
65.403
65.122
64.8411
64.5603
64.2795
63.9988
63.7182
63.4375
63.157
62.8765
62.596
62.3155
62.0352
61.7549
61.4746
61.1944
60.9144
60.6344
60.3546
60.0749
59.7954
59.5161
59.2371
58.9584
58.6799
58.4018
58.1239
57.8464
57.569
57.2916
57.0139
56.7352
56.4548
56.1713
55.883
55.5875
55.2819
54.9629
54.6275
54.2734
53.8992
53.5042
53.0885
52.6534
52.2006
51.7313
51.2467
50.7476
50.2343
49.7072
49.1666
48.6132
48.0479
47.4709
46.8825
46.2824
45.6699
45.0435
44.4042
43.7529
43.0902
42.4165
41.7317
41.0353
40.325
39.5968
38.8534
38.0974
37.3291
36.5485
35.7557
34.95
34.1267
33.283
32.4222
31.5462
30.6556
29.7506
28.832
27.8996
26.9409
25.954
24.9464
23.9217
22.8822
21.8297
20.7815
19.7868
18.7246
17.5255
16.2936
15.0561
13.8046
12.5319
11.2477
10.0302
8.75081
7.30091
5.79907
4.25389
2.39432
0.240786
0
0
0
0
0
0
0
0
0
0
0
0
0
0
0
71.7935
71.3953
71.1887
71.098
71.1107
71.2135
71.3936
71.6419
71.9522
72.3202
72.7426
73.2168
73.7395
74.3079
74.9223
75.5779
76.2689
76.9883
77.7289
78.4875
79.2577
80.0317
80.8056
81.5726
82.3276
83.0652
83.7807
84.4697
85.1283
85.7532
86.3415
86.8909
87.3995
87.8659
88.2893
88.6693
89.0058
89.2991
89.5499
89.759
89.9277
90.0572
90.1491
90.205
90.2267
90.216
90.1748
90.1049
90.0082
89.8867
89.7421
89.5763
89.3909
89.1877
88.9683
88.7342
88.4867
88.2274
87.9574
87.678
87.3903
87.0953
86.794
86.4871
86.1757
85.8603
85.5417
85.2204
84.8971
84.5721
84.246
83.9192
83.5919
83.2645
82.9373
82.6104
82.2842
81.9588
81.6343
81.3109
80.9886
80.6676
80.3479
80.0296
79.7127
79.3972
79.0832
78.7706
78.4593
78.1494
77.8411
77.5342
77.2288
76.9247
76.622
76.3205
76.0203
75.7212
75.4233
75.1265
74.8308
74.536
74.2422
73.9493
73.6573
73.3661
73.0757
72.786
72.497
72.2087
71.921
71.6338
71.3472
71.0611
70.7755
70.4904
70.2056
69.9213
69.6373
69.3536
69.0702
68.7872
68.5043
68.2218
67.9394
67.6572
67.3753
67.0934
66.8118
66.5302
66.2488
65.9675
65.6863
65.4052
65.1242
64.8432
64.5623
64.2814
64.0006
63.7198
63.4391
63.1584
62.8777
62.5971
62.3165
62.0359
61.7553
61.4748
61.1944
60.914
60.6336
60.3533
60.0732
59.7931
59.513
59.2332
58.9534
58.6737
58.394
58.1144
57.8347
57.5546
57.274
56.9923
56.7089
56.4229
56.133
55.8374
55.534
55.2204
54.8938
54.5517
54.1923
53.8141
53.4167
53
52.5649
52.1125
51.6439
51.1599
50.6612
50.1484
49.6217
49.0816
48.5287
47.9634
47.3862
46.797
46.1958
45.5821
44.9552
44.3155
43.6637
43.0001
42.3249
41.6378
40.9384
40.225
39.4958
38.7519
37.9947
37.2246
36.4416
35.6455
34.8351
34.0081
33.1628
32.3006
31.4228
30.5299
29.6219
28.6986
27.7588
26.7965
25.8106
24.8049
23.7823
22.7452
21.6956
20.6423
19.5994
18.5055
17.3262
16.1109
14.8798
13.6309
12.3621
11.0789
9.80208
8.46896
7.01985
5.51766
3.98507
2.23565
0.304838
0
0
0
0
0
0
0
0
0
0
0
0
0
0
0
71.2596
70.866
70.6764
70.6115
70.6563
70.7942
71.0098
71.2923
71.6347
72.0321
72.4809
72.9788
73.5223
74.1105
74.744
75.4161
76.1194
76.8505
77.6023
78.3693
79.147
79.9281
80.7073
81.4786
82.2367
82.9763
83.6929
84.3821
85.0402
85.6639
86.2505
86.7977
87.3039
87.7676
88.1883
88.5654
88.8991
89.1897
89.4378
89.6445
89.8109
89.9384
90.0286
90.0831
90.1037
90.0923
90.0506
89.9807
89.8843
89.7633
89.6197
89.455
89.2712
89.0698
88.8524
88.6205
88.3756
88.1189
87.8518
87.5754
87.2908
86.9991
86.7011
86.3977
86.0896
85.7778
85.4626
85.1449
84.825
84.5035
84.1808
83.8573
83.5333
83.2092
82.8851
82.5614
82.2382
81.9156
81.5939
81.2732
80.9535
80.635
80.3177
80.0017
79.6869
79.3735
79.0615
78.7508
78.4413
78.1332
77.8264
77.521
77.2169
76.9141
76.6126
76.3122
76.013
75.715
75.418
75.122
74.827
74.5329
74.2398
73.9475
73.656
73.3653
73.0753
72.7861
72.4975
72.2095
71.922
71.6352
71.3488
71.0629
70.7775
70.4925
70.2079
69.9237
69.6398
69.3562
69.0729
68.7898
68.5071
68.2245
67.9421
67.66
67.378
67.0961
66.8144
66.5329
66.2514
65.9701
65.6888
65.4076
65.1265
64.8454
64.5644
64.2834
64.0025
63.7216
63.4407
63.1599
62.879
62.5982
62.3174
62.0366
61.7558
61.475
61.1942
60.9134
60.6326
60.3518
60.071
59.7902
59.5093
59.2284
58.9475
58.6664
58.385
58.1034
57.8213
57.5383
57.2543
56.9686
56.6805
56.389
56.0929
55.7906
55.4801
55.1593
54.826
54.4781
54.1139
53.7322
53.3326
52.9149
52.4796
52.0275
51.5595
51.0761
50.5781
50.0658
49.5397
49.0003
48.4478
47.8828
47.3055
46.7159
46.1141
45.4996
44.8723
44.2323
43.58
42.9155
42.239
41.5501
40.8484
40.1328
39.4025
38.6578
37.8995
37.1278
36.3426
35.5435
34.7298
33.8998
33.0527
32.189
31.3094
30.4141
29.503
28.5757
27.6309
26.6655
25.6788
24.673
23.6502
22.6123
21.5607
20.4986
19.4269
18.3144
17.1446
15.9397
14.713
13.4658
12.1974
10.9103
9.60856
8.25348
6.82025
5.34189
3.83971
2.19136
0.411853
0
0
0
0
0
0
0
0
0
0
0
0
0
0
0
70.6198
70.2313
70.0676
70.0408
70.131
70.317
70.5802
70.9079
71.2916
71.7264
72.208
72.7345
73.3033
73.9154
74.5703
75.2605
75.9786
76.7221
77.4856
78.2627
79.0482
79.8358
80.6198
81.3945
82.1546
82.8952
83.6116
84.2997
84.956
85.5772
86.1609
86.7047
87.2072
87.6671
88.0838
88.457
88.7868
89.0737
89.3183
89.5217
89.6851
89.81
89.8979
89.9505
89.9696
89.9571
89.9147
89.8444
89.7481
89.6276
89.4848
89.3214
89.1391
88.9395
88.7243
88.4948
88.2526
87.9988
87.7348
87.4617
87.1805
86.8922
86.5979
86.2982
85.9939
85.6859
85.3746
85.0606
84.7446
84.4269
84.108
83.7882
83.4678
83.1472
82.8267
82.5063
82.1864
81.867
81.5484
81.2307
80.9139
80.5981
80.2834
79.9699
79.6576
79.3466
79.0367
78.7282
78.4207
78.1144
77.8094
77.5056
77.2031
76.9017
76.6015
76.3024
76.0044
75.7074
75.4114
75.1164
74.8223
74.529
74.2366
73.945
73.6542
73.364
73.0746
72.7858
72.4976
72.21
71.9229
71.6364
71.3503
71.0647
70.7794
70.4946
70.2102
69.9261
69.6423
69.3588
69.0756
68.7926
68.5099
68.2274
67.945
67.6629
67.3809
67.099
66.8173
66.5357
66.2542
65.9728
65.6914
65.4102
65.129
64.8478
64.5667
64.2856
64.0046
63.7235
63.4425
63.1615
62.8805
62.5994
62.3184
62.0373
61.7562
61.4751
61.1939
60.9127
60.6314
60.35
60.0685
59.7869
59.5051
59.2231
58.9408
58.6582
58.3751
58.0913
57.8066
57.5207
57.2332
56.9434
56.6506
56.3539
56.0521
55.7435
55.4266
55.0995
54.7602
54.4071
54.0386
53.6538
53.2521
52.8333
52.3978
51.9459
51.4783
50.9956
50.4983
49.9868
49.4614
48.9226
48.3707
47.8061
47.2289
46.6392
46.0371
45.4223
44.7947
44.1544
43.5016
42.8364
42.1587
41.4684
40.765
40.0479
39.3164
38.5708
37.8113
37.0381
36.251
35.4496
34.6332
33.8009
32.9521
32.0868
31.2054
30.308
29.3943
28.4637
27.5153
26.5474
25.5596
24.553
23.5291
22.489
21.4333
20.3624
19.2731
18.1496
16.9832
15.7838
14.5598
13.3132
12.044
10.7523
9.43649
8.07629
6.66048
5.20654
3.73207
2.16638
0.517256
0
0
0
0
0
0
0
0
0
0
0
0
0
0
0
69.8621
69.4811
69.3548
69.3823
69.5349
69.7855
70.1111
70.4967
70.9321
71.4128
71.9326
72.4904
73.0901
73.731
74.4086
75.1177
75.853
76.6107
77.3857
78.1723
78.965
79.7579
80.5455
81.3222
82.0829
82.8229
83.5376
84.2231
84.8759
85.4932
86.0723
86.6112
87.1086
87.5633
87.9748
88.3429
88.6677
88.9498
89.19
89.3893
89.549
89.6706
89.7556
89.8058
89.823
89.809
89.7656
89.6949
89.5985
89.4785
89.3365
89.1743
88.9936
88.7961
88.5831
88.3563
88.1169
87.8663
87.6057
87.3361
87.0587
86.7743
86.4839
86.1883
85.8882
85.5843
85.2772
84.9675
84.6556
84.3421
84.0272
83.7115
83.3951
83.0785
82.7617
82.4451
82.1288
81.8129
81.4977
81.1832
80.8696
80.5569
80.2451
79.9344
79.6247
79.3162
79.0088
78.7025
78.3973
78.0931
77.79
77.4881
77.1873
76.8875
76.5888
76.2912
75.9944
75.6987
75.4038
75.1098
74.8167
74.5243
74.2327
73.9419
73.6517
73.3623
73.0734
72.7851
72.4974
72.2103
71.9236
71.6374
71.3516
71.0663
70.7814
70.4968
70.2125
69.9286
69.645
69.3616
69.0785
68.7956
68.5129
68.2304
67.9481
67.666
67.384
67.1021
66.8204
66.5387
66.2572
65.9757
65.6943
65.413
65.1317
64.8504
64.5692
64.288
64.0068
63.7256
63.4444
63.1632
62.882
62.6008
62.3195
62.0381
61.7567
61.4752
61.1936
60.9119
60.63
60.348
60.0658
59.7833
59.5005
59.2173
58.9337
58.6494
58.3644
58.0784
57.7911
57.5022
57.2112
56.9175
56.6202
56.3186
56.0113
55.6971
55.3744
55.0416
54.697
54.3392
53.967
53.5793
53.1756
52.7557
52.3198
51.868
51.4009
50.9188
50.4222
49.9114
49.3869
48.8488
48.2976
47.7334
47.1565
46.5669
45.9647
45.3498
44.7221
44.0816
43.4284
42.7626
42.0841
41.3927
40.6881
39.9697
39.2373
38.4907
37.7302
36.9556
36.1668
35.3635
34.5451
33.7108
32.8604
31.9936
31.1105
30.2111
29.2951
28.3619
27.4109
26.4409
25.4518
24.444
23.4185
22.3758
21.3157
20.2374
19.1376
18.0074
16.8422
15.6463
14.4248
13.1794
11.9103
10.6169
9.29628
7.93879
6.53945
5.10841
3.65933
2.16205
0.618852
0
0
0
0
0
0
0
0
0
0
0
0
0
0
0
68.9719
68.6005
68.5281
68.6315
68.8689
69.2048
69.6105
70.0683
70.5653
71.0973
71.6618
72.2583
72.8932
73.5661
74.2684
74.9976
75.7499
76.5213
77.3071
78.1019
78.9004
79.6971
80.4865
81.2635
82.0229
82.7603
83.4714
84.1524
84.8
85.4114
85.9843
86.5167
87.0074
87.4555
87.8604
88.222
88.5407
88.817
89.0517
89.246
89.4013
89.5189
89.6005
89.6478
89.6627
89.647
89.6024
89.531
89.4346
89.3149
89.1739
89.013
88.8341
88.6388
88.4284
88.2044
87.9683
87.7211