# vtk DataFile Version 2.0
sampleSurface
ASCII
DATASET POLYDATA
POINTS 1086 double
-0.00076 0 0.001
-0.00076 0 -0.001
0 -0.001 0.001
0 -0.001 -0.001
-0.001976 0 -0.001
-0.001976 0 0.001
0 -0.002 0.001
0 -0.002 -0.001
0 -0.003 0.001
0 -0.003 -0.001
-0.003192 0 -0.001
-0.003192 0 0.001
0 -0.004 0.001
0 -0.004 -0.001
-0.004408 0 -0.001
-0.004408 0 0.001
0 -0.005 0.001
0 -0.005 -0.001
-0.005624 0 -0.001
-0.005624 0 0.001
0 -0.006 0.001
0 -0.006 -0.001
-0.00684 0 -0.001
-0.00684 0 0.001
0 -0.007 0.001
0 -0.007 -0.001
0 -0.008 0.001
0 -0.008 -0.001
-0.008056 0 -0.001
-0.008056 0 0.001
0 -0.009 0.001
0 -0.009 -0.001
-0.009272 0 -0.001
-0.009272 0 0.001
0 -0.01 0.001
0 -0.01 -0.001
-0.010488 0 -0.001
-0.010488 0 0.001
0 -0.011 0.001
0 -0.011 -0.001
-0.011704 0 -0.001
-0.011704 0 0.001
0 -0.012 0.001
0 -0.012 -0.001
-0.01292 0 -0.001
-0.01292 0 0.001
0 -0.013 0.001
0 -0.013 -0.001
0 -0.014 0.001
0 -0.014 -0.001
-0.014136 0 -0.001
-0.014136 0 0.001
0 -0.015 0.001
0 -0.015 -0.001
-0.015352 0 -0.001
-0.015352 0 0.001
0 -0.016 0.001
0 -0.016 -0.001
-0.016568 0 -0.001
-0.016568 0 0.001
0 -0.017 0.001
0 -0.017 -0.001
-0.017784 0 -0.001
-0.017784 0 0.001
0 -0.018 0.001
0 -0.018 -0.001
0 -0.019 0.001
0 -0.019 -0.001
-0.019 0 -0.001
-0.019 0 0.001
0 -0.02 0.001
0 -0.02 -0.001
0 -0.021 0.001
0 -0.021 -0.001
0 -0.022 0.001
0 -0.022 -0.001
0 -0.023 0.001
0 -0.023 -0.001
0 -0.024 0.001
0 -0.024 -0.001
3.66897e-05 -0.025 0.001
3.66897e-05 -0.025 -0.001
0.000456 -0.0254 -0.001
0.000456 -0.0254 0.001
0.000456 0.0254 0.001
0.000456 0.0254 -0.001
-0.00076 0.0254 0.001
-0.00076 0.0254 -0.001
0.001672 -0.0254 0.001
0.001672 -0.0254 -0.001
0.001672 0.0254 0.001
0.001672 0.0254 -0.001
-0.001976 0.0254 0.001
-0.001976 0.0254 -0.001
0.002888 -0.0254 0.001
0.002888 -0.0254 -0.001
0.002888 0.0254 0.001
0.002888 0.0254 -0.001
-0.003192 0.0254 0.001
-0.003192 0.0254 -0.001
0.004104 -0.0254 0.001
0.004104 -0.0254 -0.001
0.004104 0.0254 0.001
0.004104 0.0254 -0.001
-0.004408 0.0254 0.001
-0.004408 0.0254 -0.001
0.00532 -0.0254 0.001
0.00532 -0.0254 -0.001
0.00532 0.0254 0.001
0.00532 0.0254 -0.001
-0.005624 0.0254 0.001
-0.005624 0.0254 -0.001
0.006536 -0.0254 0.001
0.006536 -0.0254 -0.001
0.006536 0.0254 0.001
0.006536 0.0254 -0.001
-0.00684 0.0254 0.001
-0.00684 0.0254 -0.001
0.007752 -0.0254 0.001
0.007752 -0.0254 -0.001
0.007752 0.0254 0.001
0.007752 0.0254 -0.001
-0.008056 0.0254 0.001
-0.008056 0.0254 -0.001
0.008968 -0.0254 0.001
0.008968 -0.0254 -0.001
0.008968 0.0254 0.001
0.008968 0.0254 -0.001
-0.009272 0.0254 0.001
-0.009272 0.0254 -0.001
0.010184 -0.0254 0.001
0.010184 -0.0254 -0.001
0.010184 0.0254 0.001
0.010184 0.0254 -0.001
-0.010488 0.0254 0.001
-0.010488 0.0254 -0.001
0.0114 -0.0254 0.001
0.0114 -0.0254 -0.001
0.0114 0.0254 0.001
0.0114 0.0254 -0.001
-0.011704 0.0254 0.001
-0.011704 0.0254 -0.001
0.012616 -0.0254 0.001
0.012616 -0.0254 -0.001
0.012616 0.0254 0.001
0.012616 0.0254 -0.001
-0.01292 0.0254 0.001
-0.01292 0.0254 -0.001
0.013832 -0.0254 0.001
0.013832 -0.0254 -0.001
0.013832 0.0254 0.001
0.013832 0.0254 -0.001
-0.014136 0.0254 0.001
-0.014136 0.0254 -0.001
0.015048 -0.0254 0.001
0.015048 -0.0254 -0.001
0.015048 0.0254 0.001
0.015048 0.0254 -0.001
-0.015352 0.0254 0.001
-0.015352 0.0254 -0.001
0.016264 -0.0254 0.001
0.016264 -0.0254 -0.001
0.016264 0.0254 0.001
0.016264 0.0254 -0.001
-0.016568 0.0254 0.001
-0.016568 0.0254 -0.001
0.01748 -0.0254 0.001
0.01748 -0.0254 -0.001
0.01748 0.0254 0.001
0.01748 0.0254 -0.001
-0.017784 0.0254 0.001
-0.017784 0.0254 -0.001
0.018696 -0.0254 0.001
0.018696 -0.0254 -0.001
0.018696 0.0254 0.001
0.018696 0.0254 -0.001
-0.019 0.0254 -0.001
-0.019 0.0254 0.001
0.019912 -0.0254 0.001
0.019912 -0.0254 -0.001
0.019912 0.0254 0.001
0.019912 0.0254 -0.001
0.021128 -0.0254 0.001
0.021128 -0.0254 -0.001
0.021128 0.0254 0.001
0.021128 0.0254 -0.001
0.022344 -0.0254 0.001
0.022344 -0.0254 -0.001
0.022344 0.0254 0.001
0.022344 0.0254 -0.001
0.02356 -0.0254 0.001
0.02356 -0.0254 -0.001
0.02356 0.0254 0.001
0.02356 0.0254 -0.001
0.024776 -0.0254 0.001
0.024776 -0.0254 -0.001
0.024776 0.0254 0.001
0.024776 0.0254 -0.001
0.025992 -0.0254 0.001
0.025992 -0.0254 -0.001
0.025992 0.0254 0.001
0.025992 0.0254 -0.001
0.027208 -0.0254 0.001
0.027208 -0.0254 -0.001
0.027208 0.0254 0.001
0.027208 0.0254 -0.001
0.028424 -0.0254 0.001
0.028424 -0.0254 -0.001
0.028424 0.0254 0.001
0.028424 0.0254 -0.001
0.02964 -0.0254 0.001
0.02964 -0.0254 -0.001
0.02964 0.0254 0.001
0.02964 0.0254 -0.001
0.030856 -0.0254 0.001
0.030856 -0.0254 -0.001
0.030856 0.0254 0.001
0.030856 0.0254 -0.001
0.032072 -0.0254 0.001
0.032072 -0.0254 -0.001
0.032072 0.0254 0.001
0.032072 0.0254 -0.001
0.033288 -0.0254 0.001
0.033288 -0.0254 -0.001
0.033288 0.0254 0.001
0.033288 0.0254 -0.001
0.034504 -0.0254 0.001
0.034504 -0.0254 -0.001
0.034504 0.0254 0.001
0.034504 0.0254 -0.001
0.03572 -0.0254 0.001
0.03572 -0.0254 -0.001
0.03572 0.0254 0.001
0.03572 0.0254 -0.001
0.036936 -0.0254 0.001
0.036936 -0.0254 -0.001
0.036936 0.0254 0.001
0.036936 0.0254 -0.001
0.038152 -0.0254 0.001
0.038152 -0.0254 -0.001
0.038152 0.0254 0.001
0.038152 0.0254 -0.001
0.039368 -0.0254 0.001
0.039368 -0.0254 -0.001
0.039368 0.0254 0.001
0.039368 0.0254 -0.001
0.040584 -0.0254 0.001
0.040584 -0.0254 -0.001
0.040584 0.0254 0.001
0.040584 0.0254 -0.001
0.0418 -0.0254 0.001
0.0418 -0.0254 -0.001
0.0418 0.0254 0.001
0.0418 0.0254 -0.001
0.043016 -0.0254 0.001
0.043016 -0.0254 -0.001
0.043016 0.0254 0.001
0.043016 0.0254 -0.001
0.044232 -0.0254 0.001
0.044232 -0.0254 -0.001
0.044232 0.0254 0.001
0.044232 0.0254 -0.001
0.045448 -0.0254 0.001
0.045448 -0.0254 -0.001
0.045448 0.0254 0.001
0.045448 0.0254 -0.001
0.046664 -0.0254 0.001
0.046664 -0.0254 -0.001
0.046664 0.0254 0.001
0.046664 0.0254 -0.001
0.04788 -0.0254 0.001
0.04788 -0.0254 -0.001
0.04788 0.0254 0.001
0.04788 0.0254 -0.001
0.049096 -0.0254 0.001
0.049096 -0.0254 -0.001
0.049096 0.0254 0.001
0.049096 0.0254 -0.001
0.050312 -0.0254 0.001
0.050312 -0.0254 -0.001
0.050312 0.0254 0.001
0.050312 0.0254 -0.001
0.051528 -0.0254 0.001
0.051528 -0.0254 -0.001
0.051528 0.0254 0.001
0.051528 0.0254 -0.001
0.052744 -0.0254 0.001
0.052744 -0.0254 -0.001
0.052744 0.0254 0.001
0.052744 0.0254 -0.001
0.05396 -0.0254 0.001
0.05396 -0.0254 -0.001
0.05396 0.0254 0.001
0.05396 0.0254 -0.001
0.055176 -0.0254 0.001
0.055176 -0.0254 -0.001
0.055176 0.0254 0.001
0.055176 0.0254 -0.001
0.056392 -0.0254 0.001
0.056392 -0.0254 -0.001
0.056392 0.0254 0.001
0.056392 0.0254 -0.001
0.057608 -0.0254 0.001
0.057608 -0.0254 -0.001
0.057608 0.0254 0.001
0.057608 0.0254 -0.001
0.058824 -0.0254 0.001
0.058824 -0.0254 -0.001
0.058824 0.0254 0.001
0.058824 0.0254 -0.001
0.06004 -0.0254 0.001
0.06004 -0.0254 -0.001
0.06004 0.0254 0.001
0.06004 0.0254 -0.001
0.061256 -0.0254 0.001
0.061256 -0.0254 -0.001
0.061256 0.0254 0.001
0.061256 0.0254 -0.001
0.062472 -0.0254 0.001
0.062472 -0.0254 -0.001
0.062472 0.0254 0.001
0.062472 0.0254 -0.001
0.063688 -0.0254 0.001
0.063688 -0.0254 -0.001
0.063688 0.0254 0.001
0.063688 0.0254 -0.001
0.064904 -0.0254 0.001
0.064904 -0.0254 -0.001
0.064904 0.0254 0.001
0.064904 0.0254 -0.001
0.06612 -0.0254 0.001
0.06612 -0.0254 -0.001
0.06612 0.0254 0.001
0.06612 0.0254 -0.001
0.067336 -0.0254 0.001
0.067336 -0.0254 -0.001
0.067336 0.0254 0.001
0.067336 0.0254 -0.001
0.068552 -0.0254 0.001
0.068552 -0.0254 -0.001
0.068552 0.0254 0.001
0.068552 0.0254 -0.001
0.069768 -0.0254 0.001
0.069768 -0.0254 -0.001
0.069768 0.0254 0.001
0.069768 0.0254 -0.001
0.070984 -0.0254 0.001
0.070984 -0.0254 -0.001
0.070984 0.0254 0.001
0.070984 0.0254 -0.001
0.0722 -0.0254 0.001
0.0722 -0.0254 -0.001
0.0722 0.0254 0.001
0.0722 0.0254 -0.001
0.073416 -0.0254 0.001
0.073416 -0.0254 -0.001
0.073416 0.0254 0.001
0.073416 0.0254 -0.001
0.074632 -0.0254 0.001
0.074632 -0.0254 -0.001
0.074632 0.0254 0.001
0.074632 0.0254 -0.001
0.075848 -0.0254 0.001
0.075848 -0.0254 -0.001
0.075848 0.0254 0.001
0.075848 0.0254 -0.001
0.077064 -0.0254 0.001
0.077064 -0.0254 -0.001
0.077064 0.0254 0.001
0.077064 0.0254 -0.001
0.07828 -0.0254 0.001
0.07828 -0.0254 -0.001
0.07828 0.0254 0.001
0.07828 0.0254 -0.001
0.079496 -0.0254 0.001
0.079496 -0.0254 -0.001
0.079496 0.0254 0.001
0.079496 0.0254 -0.001
0.080712 -0.0254 0.001
0.080712 -0.0254 -0.001
0.080712 0.0254 0.001
0.080712 0.0254 -0.001
0.081928 -0.0254 0.001
0.081928 -0.0254 -0.001
0.081928 0.0254 0.001
0.081928 0.0254 -0.001
0.083144 -0.0254 0.001
0.083144 -0.0254 -0.001
0.083144 0.0254 0.001
0.083144 0.0254 -0.001
0.08436 -0.0254 0.001
0.08436 -0.0254 -0.001
0.08436 0.0254 0.001
0.08436 0.0254 -0.001
0.085576 -0.0254 0.001
0.085576 -0.0254 -0.001
0.085576 0.0254 0.001
0.085576 0.0254 -0.001
0.086792 -0.0254 0.001
0.086792 -0.0254 -0.001
0.086792 0.0254 0.001
0.086792 0.0254 -0.001
0.088008 -0.0254 0.001
0.088008 -0.0254 -0.001
0.088008 0.0254 0.001
0.088008 0.0254 -0.001
0.089224 -0.0254 0.001
0.089224 -0.0254 -0.001
0.089224 0.0254 0.001
0.089224 0.0254 -0.001
0.09044 -0.0254 0.001
0.09044 -0.0254 -0.001
0.09044 0.0254 0.001
0.09044 0.0254 -0.001
0.091656 -0.0254 0.001
0.091656 -0.0254 -0.001
0.091656 0.0254 0.001
0.091656 0.0254 -0.001
0.092872 -0.0254 0.001
0.092872 -0.0254 -0.001
0.092872 0.0254 0.001
0.092872 0.0254 -0.001
0.094088 -0.0254 0.001
0.094088 -0.0254 -0.001
0.094088 0.0254 0.001
0.094088 0.0254 -0.001
0.095304 -0.0254 0.001
0.095304 -0.0254 -0.001
0.095304 0.0254 0.001
0.095304 0.0254 -0.001
0.09652 -0.0254 0.001
0.09652 -0.0254 -0.001
0.09652 0.0254 0.001
0.09652 0.0254 -0.001
0.097736 -0.0254 0.001
0.097736 -0.0254 -0.001
0.097736 0.0254 0.001
0.097736 0.0254 -0.001
0.098952 -0.0254 0.001
0.098952 -0.0254 -0.001
0.098952 0.0254 0.001
0.098952 0.0254 -0.001
0.100168 -0.0254 0.001
0.100168 -0.0254 -0.001
0.100168 0.0254 0.001
0.100168 0.0254 -0.001
0.101384 -0.0254 0.001
0.101384 -0.0254 -0.001
0.101384 0.0254 0.001
0.101384 0.0254 -0.001
0.1026 -0.0254 0.001
0.1026 -0.0254 -0.001
0.1026 0.0254 0.001
0.1026 0.0254 -0.001
0.103816 -0.0254 0.001
0.103816 -0.0254 -0.001
0.103816 0.0254 0.001
[...]
CELL_DATA 529
FIELD attributes 1
p 1 529 double
72.4288 72.39 72.2089 72.0301 71.9178 71.8976 71.9776 72.157 72.4307 72.7913
73.2312 73.7424 74.3173 74.9486 75.629 76.3518 77.1101 77.8972 78.706 79.5295
80.3611 81.1941 82.0221 82.8389 83.6389 84.4168 85.1678 85.8878 86.573 87.2201
87.8267 88.3904 88.9096 89.3829 89.8091 90.1876 90.5186 90.803 91.0434 91.2415
91.3969 91.5101 91.5825 91.614 91.604 91.5558 91.4747 91.3639 91.2263 91.0653
90.8817 90.6761 90.4503 90.2061 89.9454 89.6699 89.3811 89.0807 88.7699 88.4501
88.1226 87.7885 87.4489 87.1047 86.7568 86.406 86.0531 85.6987 85.3433 84.9875
84.6319 84.2767 83.9223 83.5691 83.2172 82.867 82.5186 82.1722 81.8279 81.4858
81.1459 80.8084 80.4732 80.1403 79.8098 79.4816 79.1558 78.8324 78.5112 78.1923
77.8756 77.561 77.2485 76.938 76.6294 76.3226 76.0175 75.7141 75.4124 75.1121
74.8133 74.5158 74.2196 73.9247 73.6309 73.3382 73.0465 72.7558 72.4659 72.177
71.8888 71.6013 71.3145 71.0284 70.7429 70.4579 70.1734 69.8894 69.6058 69.3227
69.0399 68.7574 68.4752 68.1933 67.9117 67.6303 67.3491 67.068 66.7871 66.5064
66.2258 65.9453 65.6649 65.3846 65.1044 64.8242 64.5441 64.264 63.984 63.704
63.4241 63.1441 62.8642 62.5843 62.3045 62.0247 61.7449 61.4652 61.1855 60.9059
60.6264 60.347 60.0677 59.7886 59.5097 59.231 58.9526 58.6745 58.3967 58.1192
57.8422 57.5654 57.2888 57.0123 56.7357 56.4586 56.181 55.9025 55.6322 55.479
55.7968 55.4679 54.8597 72.4608 55.1202 54.8394 54.1418 53.568 53.0216 52.4473
51.8098 51.226 72.5988 51.4205 50.6912 49.9838 49.3481 48.6997 48.0192 47.2535
46.4317 72.7682 46.8503 45.8971 45.1285 44.4086 43.6608 42.8737 41.9697 41.029
72.9213 41.6245 40.435 39.525 38.6994 37.8359 36.9161 35.8723 35.1939 73.0243
35.7972 35.0571 34.0286 33.0689 32.1034 31.0998 30.0285 28.812 28.1926 73.051
28.788 27.8102 26.6523 25.5448 24.4213 23.254 21.9207 20.3413 72.9868 20.738
20.2401 18.2961 16.7841 15.4385 14.0569 12.5429 11.0322 72.8285 11.1978 9.89208
7.94691 6.26734 4.66127 2.73159 -0.228413 72.5767 72.2317 71.7935 71.2596 70.6198
69.8621 68.9719 67.9259 66.6879 65.2011 63.3738 61.0509 57.9514 53.4455 45.7312
32.0072 31.9139 11.1964 9.89085 7.94581 6.26641 4.66046 2.73091 -0.22882 20.7361
20.2382 18.2942 16.7823 15.4367 14.0552 12.5413 11.0307 28.7861 27.8082 26.6502
25.5427 24.4191 23.2518 21.9186 20.3392 35.7964 35.0561 34.0274 33.0674 32.1017
31.098 30.0265 28.8099 28.1905 41.6265 40.4363 39.5258 38.6997 37.8359 36.9157
35.8715 35.1929 46.8578 45.9034 45.1339 44.4132 43.6647 42.8769 41.9722 41.0308
51.437 50.7062 49.9971 49.3602 48.7105 48.0289 47.2621 46.4392 55.1491 54.8667
54.167 53.5913 53.0432 52.4672 51.8282 51.2433 425.161 190.291 145.081 133.392
124.287 117.276 112.068 107.969 104.558 101.618 99.022 96.6919 94.5789 92.6523
90.8927 89.2871 87.8268 86.505 85.3158 84.2539 83.3134 82.4883 81.7721 81.1578
80.6383 80.2061 79.8538 79.5741 79.3597 79.2039 79.1001 79.0422 79.0244 79.0415
79.0886 79.1613 79.2556 79.3677 79.4945 79.6329 79.7802 79.9342 80.0928 80.2539
80.4161 80.5777 80.7375 80.8944 81.0473 81.1954 81.3379 81.4741 81.6036 81.7257
81.84 81.9463 82.0443 82.1336 82.2141 82.2856 82.3481 82.4015 82.4457 82.4806
82.5064 82.5229 82.5303 82.5287 82.518 82.4985 82.4701 82.433 82.3874 82.3333
82.271 82.2005 82.122 82.0357 81.9417 81.8402 81.7313 81.6153 81.4923 81.3625
81.226 81.0832 80.9342 80.7791 80.6181 80.4514 80.2793 80.1019 79.9193 79.7317
79.5394 79.3424 79.141 78.9352 78.7254 78.5116 78.2939 78.0726 77.8478 77.6196
77.3882 77.1536 76.9162 76.6758 76.4328 76.1873 75.9392 75.6888 75.4362 75.1815
74.9248 74.6661 74.4057 74.1435 73.8797 73.6144 73.3477 73.0796 72.8102 72.5396
72.2679 71.9951 71.7214 71.4467 71.1711 70.8947 70.6176 70.3398 70.0613 69.7822
69.5025 69.2224 68.9417 68.6607 68.3792 68.0973 67.8151 67.5326 67.2499 66.9669
66.6836 66.4002 66.1166 65.8328 65.549 65.2649 64.9809 64.6967 64.4125 64.1282
63.8439 63.5596 63.2753 62.991 62.7067 62.4225 62.1384 61.8543 61.5703 61.2864
61.0027 60.7191 60.4357 60.1526 59.8697 59.5871 59.3048 59.0229 58.7414 58.4604
58.1798 57.8996 57.6199 57.3406 57.0614 56.7821 56.5026 56.2226 55.9419 55.6694
55.5143 55.831 55.5001 54.8899 356.361 220.121 154.342 131.262 118.7 110.043
103.676 98.5038 93.9142 89.6032 85.3768 81.099 76.6462 71.1095 60.6954
