/*--------------------------------*- C++ -*----------------------------------*\
| =========                 |                                                 |
| \\      /  F ield         | foam-extend: Open Source CFD                    |
|  \\    /   O peration     | Version:     4.1                                |
|   \\  /    A nd           | Web:         http://www.foam-extend.org         |
|    \\/     M anipulation  |                                                 |
\*---------------------------------------------------------------------------*/
FoamFile
{
    version     2.0;
    format      ascii;
    class       surfaceScalarField;
    location    "0.09";
    object      phi;
}
// * * * * * * * * * * * * * * * * * * * * * * * * * * * * * * * * * * * * * //

dimensions      [0 3 -1 0 0 0 0];

internalField   nonuniform List<scalar> 
29690
(
4.18193e-21
0
0
0
0
0
0
0
0
0
0
0
0
0
0
0
0
0
0
0
0
0
0
0
0
0
0
0
0
0
0
0
0
0
0
0
0
0
0
0
0
0
0
0
0
0
0
0
0
0
0
0
0
0
0
0
0
0
0
0
0
0
0
0
0
0
0
0
0
0
0
0
0
0
0
0
0
0
0
0
0
0
0
0
0
0
0
0
0
0
0
0
0
0
0
0
0
0
0
0
0
0
0
0
0
0
0
0
0
0
0
0
0
0
0
0
0
0
0
0
0
0
0
0
0
0
0
0
0
0
0
0
0
0
0
0
0
0
0
0
0
0
0
0
0
0
0
0
0
0
0
0
0
0
0
0
0
0
0
0
0
0
0
0
0
0
0
0
0
0
0
0
0
0
0
0
0
0
0
0
0
0
0
0
0
0
0
0
0
0
0
0
0
0
0
0
0
0
0
0
0
0
0
0
0
0
0
0
0
0
0
0
0
0
0
0
0
0
0
0
0
0
0
0
0
0
0
0
0
0
0
0
0
0
0
0
0
0
0
0
0
0
0
0
0
0
0
0
0
0
0
0
0
0
0
0
0
0
0
0
0
0
0
0
0
0
0
0
0
0
0
0
0
0
0
0
0
0
0
0
0
0
0
0
0
0
0
0
0
0
0
0
0
0
0
0
0
0
0
0
0
0
0
0
0
0
0
0
0
0
0
0
0
0
0
0
0
0
0
0
0
0
0
0
0
0
0
0
0
0
0
0
0
0
0
0
0
0
0
0
0
0
0
0
0
0
0
0
0
0
0
0
0
0
0
0
0
0
0
0
0
0
0
0
0
0
0
0
0
0
0
0
0
0
0
0
0
0
0
0
0
0
0
0
0
0
0
0
0
0
0
0
0
0
0
0
0
0
0
0
0
0
0
0
0
0
0
0
0
0
0
0
0
0
0
0
0
0
0
0
0
0
0
0
0
0
0
0
0
0
0
0
0
0
0
0
0
0
0
0
0
0
0
0
0
0
0
0
0
0
0
0
0
0
0
0
0
0
0
0
0
0
0
0
0
0
0
0
0
0
0
0
0
0
0
0
0
0
0
0
0
0
0
0
0
0
0
0
0
0
0
0
0
0
0
0
0
0
0
5.12984e-21
0
0
0
0
0
0
0
0
0
0
0
0
0
0
0
0
0
0
0
0
0
0
0
0
0
0
0
0
0
0
0
0
0
0
0
0
0
0
0
0
0
0
0
0
0
0
0
0
0
0
0
0
0
0
0
0
0
0
0
0
0
0
0
0
0
0
0
0
0
0
0
0
0
0
0
0
0
0
0
0
0
0
0
0
0
0
0
0
0
0
0
0
0
0
0
0
0
0
0
0
0
0
0
0
0
0
0
0
0
0
0
0
0
0
0
0
0
0
0
0
0
0
0
0
0
0
0
0
0
0
0
0
0
0
0
0
0
0
0
0
0
0
0
0
0
0
0
0
0
0
0
0
0
0
0
0
0
0
0
0
0
0
0
0
0
0
0
0
0
0
0
0
0
0
0
0
0
0
0
0
0
0
0
0
0
0
0
0
0
0
0
0
0
0
0
0
0
0
0
0
0
0
0
0
0
0
0
0
0
0
0
0
0
0
0
0
0
0
0
0
0
0
0
0
0
0
0
0
0
0
0
0
0
0
0
0
0
0
0
0
0
0
0
0
0
0
0
0
0
0
0
0
0
0
0
0
0
0
0
0
0
0
0
0
0
0
0
0
0
0
0
0
0
0
0
0
0
0
0
0
0
0
0
0
0
0
0
0
0
0
0
0
0
0
0
0
0
0
0
0
0
0
0
0
0
0
0
0
0
0
0
0
0
0
0
0
0
0
0
0
0
0
0
0
0
0
0
0
0
0
0
0
0
0
0
0
0
0
0
0
0
0
0
0
0
0
0
0
0
0
0
0
0
0
0
0
0
0
0
0
0
0
0
0
0
0
0
0
0
0
0
0
0
0
0
0
0
0
0
0
0
0
0
0
0
0
0
0
0
0
0
0
0
0
0
0
0
0
0
0
0
0
0
0
0
0
0
0
0
0
0
0
0
0
0
0
0
0
0
0
0
0
0
0
0
0
0
0
0
0
0
0
0
0
0
0
0
0
0
0
0
0
0
0
0
0
0
0
0
0
0
0
0
0
0
0
0
0
0
0
0
0
0
0
0
0
0
0
0
0
0
0
0
0
0
0
0
0
0
0
0
0
0
0
0
0
0
0
0
0
0
0
0
0
0
0
0
0
5.12984e-21
0
0
0
0
0
0
0
0
0
0
0
0
0
0
0
0
0
0
0
0
0
0
0
0
0
0
0
0
0
0
-2.86361e-26
0
-5.22883e-26
0
-3.39349e-26
0
-1.69849e-26
0
-1.25803e-26
0
-1.37296e-26
0
-1.61431e-26
0
-1.79329e-26
0
-1.84074e-26
0
-1.74519e-26
0
-1.52208e-26
0
-1.19743e-26
0
-7.99141e-27
0
-3.52797e-27
0
1.19869e-27
0
5.99928e-27
0
1.07024e-26
0
1.52602e-26
0
1.96053e-26
0
2.36308e-26
0
2.73328e-26
0
3.07136e-26
0
3.37765e-26
0
3.65244e-26
0
3.89632e-26
0
4.10955e-26
0
4.29357e-26
0
4.45013e-26
0
4.57888e-26
0
4.68241e-26
0
4.76486e-26
0
4.81807e-26
0
4.82326e-26
0
4.80842e-26
0
4.80365e-26
0
4.79277e-26
0
4.76323e-26
0
4.60727e-26
0
4.52987e-28
0
-9.05857e-26
0
-1.79687e-25
0
-2.64389e-25
0
-3.46919e-25
0
-4.04605e-25
0
-3.65454e-25
0
-2.59629e-25
0
-1.63718e-25
0
-7.51052e-26
0
5.41408e-27
0
3.36766e-26
0
3.29744e-26
0
3.15513e-26
0
3.01087e-26
0
2.86692e-26
0
2.72372e-26
0
2.5818e-26
0
2.4417e-26
0
2.30392e-26
0
2.1689e-26
0
2.03704e-26
0
1.90867e-26
0
1.78405e-26
0
1.66342e-26
0
1.54696e-26
0
1.43483e-26
0
1.32719e-26
0
1.22413e-26
0
1.12574e-26
0
1.03207e-26
0
9.43108e-27
0
8.58806e-27
0
7.79085e-27
0
7.03843e-27
0
6.32968e-27
0
5.66352e-27
0
5.03889e-27
0
4.45471e-27
0
3.9098e-27
0
3.40278e-27
0
2.93196e-27
0
2.49516e-27
0
2.08897e-27
0
1.7096e-27
0
1.36954e-27
0
1.07413e-27
0
8.05275e-28
0
5.5417e-28
0
3.22135e-28
0
1.09753e-28
0
-8.35667e-29
0
-2.58568e-28
0
-4.1599e-28
0
-5.56606e-28
0
-6.81251e-28
0
-7.90845e-28
0
-8.86389e-28
0
-9.68952e-28
0
-1.03963e-27
0
-1.0995e-27
0
-1.14953e-27
0
-1.19058e-27
0
-1.22334e-27
0
-1.24838e-27
0
-1.26623e-27
0
-1.27744e-27
0
-1.28269e-27
0
-1.28276e-27
0
-1.27841e-27
0
-1.27028e-27
0
-1.25877e-27
0
-1.24406e-27
0
-1.22624e-27
0
-1.20548e-27
0
-1.18217e-27
0
-1.15686e-27
0
-1.13016e-27
0
-1.10253e-27
0
-1.07417e-27
0
-1.04506e-27
0
-1.01515e-27
0
-9.84487e-28
0
-9.53272e-28
0
-9.21772e-28
0
-8.90213e-28
0
-8.58717e-28
0
-8.2735e-28
0
-7.96222e-28
0
-7.6554e-28
0
-7.35562e-28
0
-7.06489e-28
0
-6.78386e-28
0
-6.51199e-28
0
-6.24848e-28
0
-5.9933e-28
0
-5.74749e-28
0
-5.5129e-28
0
-5.29168e-28
0
-5.08613e-28
0
-4.89869e-28
0
-4.73194e-28
0
-4.58816e-28
0
-4.46906e-28
0
-4.37607e-28
0
-4.31138e-28
0
-4.27895e-28
0
-4.28462e-28
0
-4.33529e-28
0
-4.43828e-28
0
-4.60175e-28
0
-4.83631e-28
0
-5.15666e-28
0
-5.58251e-28
0
-6.13905e-28
0
-6.85822e-28
0
-7.78216e-28
0
-8.96904e-28
0
-1.05008e-27
0
-1.24934e-27
0
-1.51102e-27
0
-1.85846e-27
0
-2.32487e-27
0
-2.95673e-27
0
-3.81441e-27
0
-4.96129e-27
0
-6.4209e-27
0
-7.98782e-27
0
-8.31199e-27
0
-1.57558e-27
0
4.2966e-26
0
3.43656e-25
0
1.358e-24
0
1.00211e-24
0
5.27291e-25
0
0
0
0
0
0
0
0
0
0
0
0
0
0
0
0
0
0
0
0
0
0
0
0
0
0
0
0
0
0
0
0
0
0
0
0
0
0
0
0
0
0
0
0
0
0
0
0
0
0
0
0
0
0
0
0
0
0
0
0
0
0
0
0
0
0
0
0
0
0
0
0
0
0
0
0
0
0
0
0
0
0
0
0
0
0
0
0
0
0
0
0
0
0
0
0
0
0
0
0
0
0
0
0
0
0
0
0
0
0
0
0
0
0
0
0
0
0
0
0
0
0
0
5.12984e-21
0
0
0
0
0
0
0
0
0
0
0
0
0
0
0
0
0
0
0
0
0
0
0
0
0
0
0
2.26651e-26
-1.68486e-26
1.23224e-25
-4.04502e-25
-2.01065e-26
-7.88198e-26
-1.03949e-24
6.07121e-25
-3.02041e-24
1.2019e-24
-5.61616e-24
1.59883e-24
-8.55226e-24
1.81765e-24
-1.16178e-23
1.89973e-24
-1.4656e-23
1.8826e-24
-1.75536e-23
1.79593e-24
-2.0232e-23
1.6619e-24
-2.26378e-23
1.49655e-24
-2.47361e-23
1.31119e-24
-2.65056e-23
1.11371e-24
-2.79341e-23
9.09563e-25
-2.90165e-23
7.02562e-25
-2.97523e-23
4.95347e-25
-3.01446e-23
2.8984e-25
-3.01999e-23
8.80203e-26
-2.99273e-23
-1.08772e-25
-2.93379e-23
-2.99401e-25
-2.8446e-23
-4.81978e-25
-2.72685e-23
-6.5474e-25
-2.58247e-23
-8.16262e-25
-2.41353e-23
-9.65466e-25
-2.22223e-23
-1.10156e-24
-2.01083e-23
-1.22407e-24
-1.78164e-23
-1.33264e-24
-1.53701e-23
-1.42714e-24
-1.2792e-23
-1.50783e-24
-1.01044e-23
-1.57495e-24
-7.32905e-24
-1.6289e-24
-4.48629e-24
-1.67082e-24
-1.59584e-24
-1.70156e-24
1.3218e-24
-1.71967e-24
4.2467e-24
-1.72462e-24
7.16127e-24
-1.71868e-24
1.00498e-23
-1.70394e-24
1.2923e-23
-1.6896e-24
1.57824e-23
-1.72646e-24
1.85748e-23
-1.81408e-24
2.12577e-23
-1.89713e-24
2.38238e-23
-1.96855e-24
2.62686e-23
-2.03023e-24
2.85997e-23
-2.04708e-24
3.08511e-23
-1.93664e-24
3.3044e-23
-1.73511e-24
3.51753e-23
-1.5361e-24
3.72401e-23
-1.34678e-24
3.92029e-23
-1.17306e-24
4.1033e-23
-1.06436e-24
4.27474e-23
-9.97991e-25
4.43621e-23
-9.37929e-25
4.58783e-23
-8.79163e-25
4.72981e-23
-8.21789e-25
4.86241e-23
-7.66019e-25
4.9859e-23
-7.12032e-25
5.1006e-23
-6.59969e-25
5.20683e-23
-6.0994e-25
5.30495e-23
-5.62029e-25
5.3953e-23
-5.16293e-25
5.47824e-23
-4.7277e-25
5.55415e-23
-4.31475e-25
5.62339e-23
-3.92408e-25
5.68632e-23
-3.5555e-25
5.7433e-23
-3.20869e-25
5.79469e-23
-2.88319e-25
5.84083e-23
-2.57846e-25
5.88206e-23
-2.29388e-25
5.91871e-23
-2.02878e-25
5.95108e-23
-1.78244e-25
5.9795e-23
-1.55412e-25
6.00423e-23
-1.34306e-25
6.02557e-23
-1.14847e-25
6.04378e-23
-9.69545e-26
6.0591e-23
-8.05481e-26
6.07179e-23
-6.55466e-26
6.08206e-23
-5.18708e-26
6.09013e-23
-3.94443e-26
6.0962e-23
-2.81949e-26
6.10046e-23
-1.80555e-26
6.10309e-23
-8.966e-27
6.10427e-23
-8.76288e-28
6.10414e-23
6.26982e-27
6.10285e-23
1.26334e-26
6.10052e-23
1.83833e-26
6.09726e-23
2.35208e-26
6.09318e-23
2.80109e-26
6.08838e-23
3.18832e-26
6.08296e-23
3.51844e-26
6.07702e-23
3.79609e-26
6.07063e-23
4.02592e-26
6.06388e-23
4.2125e-26
6.05682e-23
4.36017e-26
6.04953e-23
4.47301e-26
6.04206e-23
4.55472e-26
6.03446e-23
4.60865e-26
6.02678e-23
4.63778e-26
6.01904e-23
4.64484e-26
6.0113e-23
4.63227e-26
6.00358e-23
4.60235e-26
5.99591e-23
4.55721e-26
5.98831e-23
4.49882e-26
5.98081e-23
4.429e-26
5.97343e-23
4.34939e-26
5.96618e-23
4.26137e-26
5.95907e-23
4.16615e-26
5.95212e-23
4.06475e-26
5.94533e-23
3.95813e-26
5.93873e-23
3.84724e-26
5.9323e-23
3.73304e-26
5.92607e-23
3.61646e-26
5.92003e-23
3.49835e-26
5.91418e-23
3.37938e-26
5.90853e-23
3.26005e-26
5.90308e-23
3.14071e-26
5.89782e-23
3.02169e-26
5.89277e-23
2.90336e-26
5.8879e-23
2.78615e-26
5.88324e-23
2.6705e-26
5.87876e-23
2.55681e-26
5.87448e-23
2.44538e-26
5.87037e-23
2.33639e-26
5.86645e-23
2.23001e-26
5.86271e-23
2.12639e-26
5.85914e-23
2.0257e-26
5.85573e-23
1.92813e-26
5.85249e-23
1.83382e-26
5.8494e-23
1.74283e-26
5.84646e-23
1.65524e-26
5.84367e-23
1.57115e-26
5.84102e-23
1.4907e-26
5.8385e-23
1.41412e-26
5.8361e-23
1.34162e-26
5.83383e-23
1.27341e-26
5.83166e-23
1.20969e-26
5.8296e-23
1.15062e-26
5.82763e-23
1.09642e-26
5.82575e-23
1.04738e-26
5.82395e-23
1.00383e-26
5.82221e-23
9.66216e-27
5.82053e-23
9.35076e-27
5.81889e-23
9.11081e-27
5.81729e-23
8.95044e-27
5.8157e-23
8.8792e-27
5.8141e-23
8.90807e-27
5.81249e-23
9.04996e-27
5.81083e-23
9.32044e-27
5.8091e-23
9.73858e-27
5.80728e-23
1.03278e-26
5.80532e-23
1.11162e-26
5.80319e-23
1.2138e-26
5.80084e-23
1.34349e-26
5.79822e-23
1.50583e-26
5.79525e-23
1.70733e-26
5.79186e-23
1.95633e-26
5.78794e-23
2.2637e-26
5.78336e-23
2.64402e-26
5.77797e-23
3.11758e-26
5.77155e-23
3.71376e-26
5.76381e-23
4.477e-26
5.75435e-23
5.47771e-26
5.74257e-23
6.83317e-26
5.72758e-23
8.74925e-26
5.70791e-23
1.16077e-25
5.68109e-23
1.61572e-25
5.64275e-23
2.39652e-25
5.58352e-23
3.85845e-25
5.4787e-23
6.90086e-25
5.27041e-23
1.43517e-24
4.7387e-23
3.51201e-24
3.63498e-23
6.96506e-24
2.14876e-23
6.20485e-24
6.87245e-24
5.74951e-24
0
1.04089e-23
0
9.79131e-24
0
7.45026e-24
0
5.40467e-24
0
3.72988e-24
0
2.29079e-24
0
1.11094e-24
0
4.90873e-25
0
0
0
0
0
0
0
0
0
0
0
0
0
0
0
0
0
0
0
0
0
0
0
0
0
0
0
0
0
0
0
0
0
0
0
0
0
0
0
0
0
0
0
0
0
0
0
0
0
0
0
0
0
0
0
0
0
0
0
0
0
0
0
0
0
0
0
0
0
0
0
0
0
0
0
0
0
0
0
0
0
0
0
0
0
0
0
0
0
0
0
0
0
0
0
0
0
0
0
0
0
0
0
0
0
0
0
5.12984e-21
0
0
0
0
0
0
0
0
0
0
0
0
0
0
0
0
0
0
0
0
0
0
0
0
0
1.54055e-26
0
2.1092e-25
-1.30053e-25
1.78951e-10
-1.78951e-10
1.60794e-10
1.8154e-11
-1.62698e-09
1.78777e-09
-4.87935e-09
3.25237e-09
-9.11009e-09
4.23074e-09
-1.38857e-08
4.77564e-09
-1.88677e-08
4.982e-09
-2.38032e-08
4.93544e-09
-2.85097e-08
4.70651e-09
-3.28598e-08
4.35011e-09
-3.67671e-08
3.90734e-09
-4.01753e-08
3.40816e-09
-4.30494e-08
2.87409e-09
-4.53699e-08
2.32048e-09
-4.71282e-08
1.7583e-09
-4.83236e-08
1.1954e-09
-4.89611e-08
6.37468e-10
-4.90508e-08
8.97517e-11
-4.86074e-08
-4.43428e-10
-4.76493e-08
-9.58077e-10
-4.61998e-08
-1.44948e-09
-4.42865e-08
-1.9133e-09
-4.19405e-08
-2.34598e-09
-3.91957e-08
-2.74484e-09
-3.60878e-08
-3.10795e-09
-3.26536e-08
-3.43417e-09
-2.89309e-08
-3.72272e-09
-2.49575e-08
-3.97341e-09
-2.07705e-08
-4.18697e-09
-1.64062e-08
-4.36432e-09
-1.18996e-08
-4.50654e-09
-7.28418e-09
-4.61546e-09
-2.59171e-09
-4.69247e-09
2.14506e-09
-4.73678e-09
6.89386e-09
-4.7488e-09
1.16262e-08
-4.73233e-09
1.63176e-08
-4.69144e-09
2.09437e-08
-4.62611e-09
2.54904e-08
-4.54663e-09
2.99442e-08
-4.45387e-09
3.42812e-08
-4.33697e-09
3.84845e-08
-4.20326e-09
4.25496e-08
-4.06512e-09
4.64756e-08
-3.92607e-09
5.02455e-08
-3.76989e-09
5.38501e-08
-3.60459e-09
5.72964e-08
-3.44633e-09
6.05808e-08
-3.28431e-09
6.36948e-08
-3.11409e-09
6.66443e-08
-2.94949e-09
6.94315e-08
-2.78716e-09
7.20559e-08
-2.6244e-09
7.45202e-08
-2.46428e-09
7.68278e-08
-2.30768e-09
7.8983e-08
-2.15519e-09
8.09904e-08
-2.00732e-09
8.28548e-08
-1.86447e-09
8.45818e-08
-1.72694e-09
8.61767e-08
-1.59499e-09
8.76455e-08
-1.46879e-09
8.8994e-08
-1.34847e-09
9.02281e-08
-1.23408e-09
9.13537e-08
-1.12564e-09
9.23768e-08
-1.02312e-09
9.33033e-08
-9.26454e-10
9.41388e-08
-8.35535e-10
9.48891e-08
-7.50234e-10
9.55595e-08
-6.70402e-10
9.61553e-08
-5.95869e-10
9.66818e-08
-5.26456e-10
9.71438e-08
-4.6197e-10
9.7546e-08
-4.02212e-10
9.78929e-08
-3.46977e-10
9.8189e-08
-2.96053e-10
9.84382e-08
-2.49228e-10
9.86445e-08
-2.06289e-10
9.88115e-08
-1.67026e-10
9.89428e-08
-1.31235e-10
9.90415e-08
-9.87219e-11
9.91108e-08
-6.93016e-11
9.91536e-08
-4.2806e-11
9.91727e-08
-1.90839e-11
9.91707e-08
2.04037e-12
9.91497e-08
2.09153e-11
9.91119e-08
3.78882e-11
9.90588e-08
5.30484e-11
9.89924e-08
6.6409e-11
9.89144e-08
7.80513e-11
9.88263e-08
8.80912e-11
9.87296e-08
9.66513e-11
9.86258e-08
1.03856e-10
9.85159e-08
1.09826e-10
9.84013e-08
1.14678e-10
9.82827e-08
1.18523e-10
9.81613e-08
1.21461e-10
9.80377e-08
1.23586e-10
9.79127e-08
1.24981e-10
9.7787e-08
1.25725e-10
9.76611e-08
1.25886e-10
9.75356e-08
1.25531e-10
9.74109e-08
1.24718e-10
9.72874e-08
1.23504e-10
9.71654e-08
1.21939e-10
9.70453e-08
1.20068e-10
9.69274e-08
1.17933e-10
9.68118e-08
1.15569e-10
9.66988e-08
1.13008e-10
9.65886e-08
1.1028e-10
9.64811e-08
1.07414e-10
9.63767e-08
1.04437e-10
9.62753e-08
1.01373e-10
9.61771e-08
9.82441e-11
9.6082e-08
9.50705e-11
9.59901e-08
9.18678e-11
9.59015e-08
8.86498e-11
9.5816e-08
8.54292e-11
9.57338e-08
8.22183e-11
9.56548e-08
7.90291e-11
9.55789e-08
7.58726e-11
9.55061e-08
7.27588e-11
9.54364e-08
6.96959e-11
9.53697e-08
6.66913e-11
9.5306e-08
6.3751e-11
9.52451e-08
6.0881e-11
9.5187e-08
5.80866e-11
9.51317e-08
5.53723e-11
9.50789e-08
5.2742e-11
9.50287e-08
5.01992e-11
9.4981e-08
4.77472e-11
9.49356e-08
4.53901e-11
9.48925e-08
4.31324e-11
9.48515e-08
4.0979e-11
9.48125e-08
3.89352e-11
9.47755e-08
3.70065e-11
9.47403e-08
3.51985e-11
9.47068e-08
3.35175e-11
9.46748e-08
3.19705e-11
9.46442e-08
3.05658e-11
9.46149e-08
2.93134e-11
9.45867e-08
2.82256e-11
9.45594e-08
2.73175e-11
9.45327e-08
2.66074e-11
9.45066e-08
2.61173e-11
9.44807e-08
2.58731e-11
9.44548e-08
2.59056e-11
9.44286e-08
2.62517e-11
9.44016e-08
2.6956e-11
9.43736e-08
2.8072e-11
9.43439e-08
2.96644e-11
9.43121e-08
3.18116e-11
9.42775e-08
3.46092e-11
9.42393e-08
3.81753e-11
9.41967e-08
4.26572e-11
9.41484e-08
4.82408e-11
9.40933e-08
5.51641e-11
9.40295e-08
6.37386e-11
9.39551e-08
7.43816e-11
9.38674e-08
8.76701e-11
9.3763e-08
1.04428e-10
9.36371e-08
1.25876e-10
9.34832e-08
1.53898e-10
9.32917e-08
1.91521e-10
9.30479e-08
2.43837e-10
9.27281e-08
3.19819e-10
9.22922e-08
4.35841e-10
9.16687e-08
6.23505e-10
9.07145e-08
9.54258e-10
8.91049e-08
1.60955e-09
8.59492e-08
3.15567e-09
7.66947e-08
9.25459e-09
4.2486e-08
3.42087e-08
1.38983e-08
2.85877e-08
1.2843e-22
1.38982e-08
1.75006e-22
4.40237e-23
1.38405e-22
4.09209e-23
1.12962e-22
3.44442e-23
8.84081e-23
2.70003e-23
6.53018e-23
2.03032e-23
4.33982e-23
1.40697e-23
2.32579e-23
8.37433e-24
6.89748e-24
7.37308e-24
0
8.40134e-24
0
9.96031e-24
0
7.91373e-24
0
5.8042e-24
0
3.94446e-24
0
2.34952e-24
0
1.05148e-24
0
-5.54941e-25
0
0
0
0
0
0
0
0
0
0
0
0
0
0
0
0
0
0
0
0
0
0
0
0
0
0
0
0
0
0
0
0
0
0
0
0
0
0
0
0
0
0
0
0
0
0
0
0
0
0
0
0
0
0
0
0
0
0
0
0
0
0
0
0
0
0
0
0
0
0
0
0
0
0
0
0
0
0
0
0
0
0
0
0
0
0
0
0
0
0
0
5.12984e-21
0
0
0
0
0
0
0
0
0
0
0
0
0
0
0
0
0
0
0
0
0
0
0
0
0
6.02039e-26
0
1.53582e-25
-1.32821e-25
2.29433e-10
-4.08385e-10
-4.73069e-09
4.97827e-09
-2.52113e-08
2.22683e-08
-5.93078e-08
3.73489e-08
-1.03034e-07
4.79565e-08
-1.524e-07
5.41416e-08
-2.04042e-07
5.6624e-08
-2.55341e-07
5.62349e-08
-3.04355e-07
5.37201e-08
-3.49692e-07
4.96878e-08
-3.90393e-07
4.46084e-08
-4.25819e-07
3.8834e-08
-4.55568e-07
3.26232e-08
-4.79412e-07
2.61636e-08
-4.97245e-07
1.95919e-08
-5.09057e-07
1.30076e-08
-5.14905e-07
6.48538e-09
-5.14906e-07
9.0491e-11
-5.09222e-07
-6.12749e-09
-4.98058e-07
-1.21223e-08
-4.81668e-07
-1.78387e-08
-4.60355e-07
-2.32271e-08
-4.34452e-07
-2.82482e-08
-4.04325e-07
-3.28726e-08
-3.70353e-07
-3.70792e-08
-3.32932e-07
-4.08555e-08
-2.92461e-07
-4.4194e-08
-2.49341e-07
-4.70935e-08
-2.03966e-07
-4.95622e-08
-1.56719e-07
-5.16113e-08
-1.07972e-07
-5.32531e-08
-5.80833e-08
-5.45043e-08
-7.39568e-09
-5.53801e-08
4.37406e-08
-5.58731e-08
9.49875e-08
-5.59956e-08
1.46053e-07
-5.57982e-08
1.96686e-07
-5.53238e-08
2.46664e-07
-5.46046e-08
2.95801e-07
-5.36833e-08
3.43893e-07
-5.2546e-08
3.90732e-07
-5.11763e-08
4.36168e-07
-4.96386e-08
4.80103e-07
-4.80002e-08
5.22478e-07
-4.63014e-08
5.63225e-07
-4.45174e-08
6.02301e-07
-4.26802e-08
6.39692e-07
-4.08368e-08
6.75361e-07
-3.89542e-08
7.09255e-07
-3.7008e-08
7.41362e-07
-3.50566e-08
7.71701e-07
-3.31258e-08
8.00294e-07
-3.12177e-08
8.27172e-07
-2.93417e-08
8.52369e-07
-2.75053e-08
8.7593e-07
-2.57154e-08
8.979e-07
-2.3978e-08
9.18333e-07
-2.22977e-08
9.37285e-07
-2.06785e-08
9.54813e-07
-1.91233e-08
9.70979e-07
-1.76343e-08
9.85843e-07
-1.6213e-08
9.99469e-07
-1.48602e-08
1.01192e-06
-1.35764e-08
1.02326e-06
-1.23612e-08
1.03355e-06
-1.1214e-08
1.04284e-06
-1.01336e-08
1.05121e-06
-9.11886e-09
1.05871e-06
-8.16796e-09
1.06539e-06
-7.27909e-09
1.07132e-06
-6.4502e-09
1.07653e-06
-5.67912e-09
1.0811e-06
-4.96359e-09
1.08505e-06
-4.30125e-09
1.08844e-06
-3.6897e-09
1.09132e-06
-3.12649e-09
1.09372e-06
-2.60919e-09
1.09569e-06
-2.1354e-09
1.09726e-06
-1.70277e-09
1.09847e-06
-1.30902e-09
1.09936e-06
-9.51998e-10
1.09994e-06
-6.2968e-10
1.10026e-06
-3.40234e-10
1.10035e-06
-8.18204e-11
1.10022e-06
1.49169e-10
1.0999e-06
3.56722e-10
1.09941e-06
5.42466e-10
1.09877e-06
7.0698e-10
1.098e-06
8.51155e-10
1.09711e-06
9.76256e-10
1.09612e-06
1.08368e-09
1.09505e-06
1.17484e-09
1.09391e-06
1.25114e-09
1.09271e-06
1.31393e-09
1.09147e-06
1.3645e-09
1.09018e-06
1.40403e-09
1.08887e-06
1.43362e-09
1.08754e-06
1.45428e-09
1.0862e-06
1.46694e-09
1.08486e-06
1.47243e-09
1.08351e-06
1.47156e-09
1.08217e-06
1.46502e-09
1.08084e-06
1.45348e-09
1.07952e-06
1.43755e-09
1.07823e-06
1.41777e-09
1.07695e-06
1.39463e-09
1.0757e-06
1.36859e-09
1.07447e-06
1.34004e-09
1.07327e-06
1.30935e-09
1.0721e-06
1.27688e-09
1.07096e-06
1.24294e-09
1.06986e-06
1.20783e-09
1.06878e-06
1.17181e-09
1.06774e-06
1.13511e-09
1.06674e-06
1.09795e-09
1.06576e-06
1.0605e-09
1.06483e-06
1.02293e-09
1.06392e-06
9.85395e-10
1.06305e-06
9.48038e-10
1.06222e-06
9.10996e-10
1.06142e-06
8.74385e-10
1.06065e-06
8.38308e-10
1.05991e-06
8.02854e-10
1.05921e-06
7.68106e-10
1.05854e-06
7.34138e-10
1.05789e-06
7.0102e-10
1.05728e-06
6.68811e-10
1.05669e-06
6.37564e-10
1.05614e-06
6.07327e-10
1.05561e-06
5.78146e-10
1.0551e-06
5.50073e-10
1.05462e-06
5.23162e-10
1.05417e-06
4.97469e-10
1.05373e-06
4.73057e-10
1.05332e-06
4.49988e-10
1.05292e-06
4.28331e-10
1.05255e-06
4.08163e-10
1.05219e-06
3.89574e-10
1.05185e-06
3.72668e-10
1.05152e-06
3.57569e-10
1.05121e-06
3.44427e-10
1.0509e-06
3.33423e-10
1.0506e-06
3.24772e-10
1.05031e-06
3.18734e-10
1.05002e-06
3.15619e-10
1.04973e-06
3.15794e-10
1.04944e-06
3.19705e-10
1.04913e-06
3.27886e-10
1.04882e-06
3.40984e-10
1.04849e-06
3.59782e-10
1.04814e-06
3.85229e-10
1.04775e-06
4.18488e-10
1.04733e-06
4.60996e-10
1.04686e-06
5.14551e-10
1.04633e-06
5.81427e-10
1.04572e-06
6.64555e-10
1.04501e-06
7.67784e-10
1.04419e-06
8.963e-10
1.04322e-06
1.05729e-09
1.04206e-06
1.26104e-09
1.04067e-06
1.52278e-09
1.03896e-06
1.86586e-09
1.03682e-06
2.32755e-09
1.03409e-06
2.9696e-09
1.03052e-06
3.8986e-09
1.02564e-06
5.30659e-09
1.01871e-06
7.55486e-09
1.00832e-06
1.135e-08
9.91773e-07
1.81545e-08
9.6358e-07
3.13482e-08
9.151e-07
5.77347e-08
8.52861e-07
9.64478e-08
7.66381e-07
1.15068e-07
6.6528e-07
1.14999e-07
5.27159e-07
1.38121e-07
3.88348e-07
1.3881e-07
2.72569e-07
1.15779e-07
1.77735e-07
9.48348e-08
1.02403e-07
7.53315e-08
4.71931e-08
5.521e-08
1.31474e-08
3.40456e-08
1.259e-22
1.31473e-08
1.90031e-22
4.68344e-23
1.53409e-22
4.35734e-23
1.23754e-22
3.76056e-23
9.58608e-23
2.96244e-23
6.97529e-23
2.20036e-23
4.51813e-23
1.48791e-23
2.39766e-23
8.49223e-24
7.34462e-24
2.76523e-24
0
1.27178e-23
0
1.11157e-23
0
8.42242e-24
0
6.10336e-24
0
4.08068e-24
0
2.3626e-24
0
9.84369e-25
0
-4.38635e-25
0
0
0
0
0
0
0
0
0
0
0
0
0
0
0
0
0
0
0
0
0
0
0
0
0
0
0
0
0
0
0
0
0
0
0
0
0
0
0
0
0
0
0
0
0
0
0
0
0
0
0
0
0
0
0
0
0
0
0
0
0
0
0
0
0
0
0
0
0
0
0
0
0
0
0
5.12984e-21
0
0
0
0
0
0
0
0
0
0
0
0
0
0
0
0
0
0
0
0
0
0
0
0
0
4.99382e-26
0
-3.52261e-25
4.38763e-25
-1.27912e-09
8.70732e-10
-2.03119e-08
2.4011e-08
-6.45988e-08
6.65552e-08
-1.30618e-07
1.03368e-07
-2.12388e-07
1.29727e-07
-3.03597e-07
1.4535e-07
-3.98611e-07
1.51638e-07
-4.9283e-07
1.50455e-07
-5.82709e-07
1.43598e-07
-6.65626e-07
1.32605e-07
-7.39722e-07
1.18704e-07
-8.03734e-07
1.02846e-07
-8.56855e-07
8.57437e-08
-8.98618e-07
6.79269e-08
-9.28814e-07
4.97878e-08
-9.47424e-07
3.1618e-08
-9.54578e-07
1.36393e-08
-9.50519e-07
-3.96885e-09
-9.35587e-07
-2.10597e-08
-9.10219e-07
-3.74903e-08
-8.74945e-07
-5.31127e-08
-8.3037e-07
-6.7802e-08
-7.77158e-07
-8.14597e-08
-7.16018e-07
-9.40131e-08
-6.47685e-07
-1.05412e-07
-5.72914e-07
-1.15627e-07
-4.92464e-07
-1.24644e-07
-4.07094e-07
-1.32463e-07
-3.17546e-07
-1.3911e-07
-2.24543e-07
-1.44615e-07
-1.28784e-07
-1.49012e-07
-3.09443e-08
-1.52345e-07
6.82877e-08
-1.54612e-07
1.68234e-07
-1.55819e-07
2.68306e-07
-1.56068e-07
3.67986e-07
-1.55478e-07
4.66803e-07
-1.54141e-07
5.64334e-07
-1.52135e-07
6.60182e-07
-1.49532e-07
7.54001e-07
-1.46365e-07
8.45502e-07
-1.42678e-07
9.34429e-07
-1.38566e-07
1.02056e-06
-1.34131e-07
1.10371e-06
-1.29451e-07
1.18376e-06
-1.24565e-07
1.2606e-06
-1.19527e-07
1.33416e-06
-1.14389e-07
1.40436e-06
-1.09157e-07
1.47119e-06
-1.03842e-07
1.53464e-06
-9.85026e-08
1.5947e-06
-9.31888e-08
1.65142e-06
-8.79312e-08
1.70483e-06
-8.27553e-08
1.75501e-06
-7.76827e-08
1.80202e-06
-7.27326e-08
1.84597e-06
-6.7921e-08
1.88693e-06
-6.32614e-08
1.92502e-06
-5.87648e-08
1.96033e-06
-5.44397e-08
1.99299e-06
-5.02927e-08
2.02311e-06
-4.63284e-08
2.0508e-06
-4.25495e-08
2.07618e-06
-3.89574e-08
2.09937e-06
-3.55519e-08
2.12049e-06
-3.23316e-08
2.13965e-06
-2.92942e-08
2.15696e-06
-2.64362e-08
2.17255e-06
-2.37536e-08
2.18651e-06
-2.12416e-08
2.19896e-06
-1.8895e-08
2.20999e-06
-1.6708e-08
2.2197e-06
-1.46747e-08
2.22818e-06
-1.2789e-08
2.23554e-06
-1.10442e-08
2.24185e-06
-9.43412e-09
2.24719e-06
-7.95206e-09
2.25165e-06
-6.59158e-09
2.25529e-06
-5.34632e-09
2.25819e-06
-4.21007e-09
2.26042e-06
-3.17688e-09
2.26203e-06
-2.24104e-09
2.26308e-06
-1.39716e-09
2.26364e-06
-6.39928e-10
2.26375e-06
3.6834e-11
2.26347e-06
6.43717e-10
2.26282e-06
1.18873e-09
2.26185e-06
1.6739e-09
2.2606e-06
2.10185e-09
2.2591e-06
2.47589e-09
2.25739e-06
2.79976e-09
2.25548e-06
3.07731e-09
2.25342e-06
3.31234e-09
2.25123e-06
3.50855e-09
2.24892e-06
3.66945e-09
2.24653e-06
3.79836e-09
2.24407e-06
3.89834e-09
2.24155e-06
3.97222e-09
2.23899e-06
4.02263e-09
2.23641e-06
4.05196e-09
2.23382e-06
4.06244e-09
2.23123e-06
4.05612e-09
2.22865e-06
4.03486e-09
2.22609e-06
4.00039e-09
2.22355e-06
3.95428e-09
2.22105e-06
3.89797e-09
2.21858e-06
3.83275e-09
2.21616e-06
3.75981e-09
2.21379e-06
3.68024e-09
2.21147e-06
3.59503e-09
2.20921e-06
3.50513e-09
2.20701e-06
3.41138e-09
2.20486e-06
3.31455e-09
2.20278e-06
3.21533e-09
2.20077e-06
3.11435e-09
2.19882e-06
3.01215e-09
2.19693e-06
2.90923e-09
2.19511e-06
2.80607e-09
2.19335e-06
2.70308e-09
2.19166e-06
2.60067e-09
2.19004e-06
2.49918e-09
2.18848e-06
2.39891e-09
2.18698e-06
2.30016e-09
2.18555e-06
2.20316e-09
2.18417e-06
2.10814e-09
2.18286e-06
2.01532e-09
2.1816e-06
1.92488e-09
2.1804e-06
1.83699e-09
2.17926e-06
1.75179e-09
2.17817e-06
1.66946e-09
2.17713e-06
1.59013e-09
2.17614e-06
1.51397e-09
2.17519e-06
1.44114e-09
2.17429e-06
1.37182e-09
2.17344e-06
1.30619e-09
2.17262e-06
1.24446e-09
2.17184e-06
1.18685e-09
2.1711e-06
1.13362e-09
2.17039e-06
1.08507e-09
2.1697e-06
1.04157e-09
2.16904e-06
1.00353e-09
2.1684e-06
9.71476e-10
2.16778e-06
9.46006e-10
2.16717e-06
9.27851e-10
2.16657e-06
9.17881e-10
2.16597e-06
9.17135e-10
2.16536e-06
9.26863e-10
2.16474e-06
9.48573e-10
2.1641e-06
9.84088e-10
2.16342e-06
1.03562e-09
2.1627e-06
1.10586e-09
2.16192e-06
1.19812e-09
2.16107e-06
1.31649e-09
2.16012e-06
1.4661e-09
2.15904e-06
1.65345e-09
2.15782e-06
1.88693e-09
2.15641e-06
2.17753e-09
2.15477e-06
2.54006e-09
2.15283e-06
2.99488e-09
2.15052e-06
3.57086e-09
2.14773e-06
4.31006e-09
2.14432e-06
5.27566e-09
2.14009e-06
6.56537e-09
2.13472e-06
8.33468e-09
2.12778e-06
1.08378e-08
2.11859e-06
1.45009e-08
2.10609e-06
2.00513e-08
2.0887e-06
2.87358e-08
2.06418e-06
4.26761e-08
2.03015e-06
6.53772e-08
1.98703e-06
1.0086e-07
1.93832e-06
1.45156e-07
1.87464e-06
1.7875e-07
1.78811e-06
2.01531e-07
1.69528e-06
2.30951e-07
1.58803e-06
2.46055e-07
1.46413e-06
2.3968e-07
1.33085e-06
2.28113e-07
1.19057e-06
2.15617e-07
1.0442e-06
2.01573e-07
8.93274e-07
1.84976e-07
7.40272e-07
1.6615e-07
5.70157e-07
1.70114e-07
4.1929e-07
1.50867e-07
2.91638e-07
1.27652e-07
1.86695e-07
1.04944e-07
1.04512e-07
8.2183e-08
4.57152e-08
5.87966e-08
1.17747e-08
3.39405e-08
3.36924e-23
1.17747e-08
2.06434e-22
5.57562e-23
1.65303e-22
5.0027e-23
1.32307e-22
4.06492e-23
1.01637e-22
3.15964e-23
7.29699e-23
2.3167e-23
4.60512e-23
1.5344e-23
2.4488e-23
8.47692e-24
7.97914e-24
2.98561e-24
0
1.3812e-23
0
1.19602e-23
0
8.91013e-24
0
6.3772e-24
0
4.19135e-24
0
2.35105e-24
0
9.38562e-25
0
3.59119e-25
0
0
0
0
0
0
0
0
0
0
0
0
0
0
0
0
0
0
0
0
0
0
0
0
0
0
0
0
0
0
0
0
0
0
0
0
0
0
0
0
0
0
0
0
0
0
0
0
0
0
0
0
0
0
0
0
0
0
0
5.12984e-21
0
0
0
0
0
0
0
0
0
0
0
0
0
0
0
0
0
0
0
0
0
0
0
0
0
1.33251e-26
0
-9.93242e-25
1.74409e-24
-2.80677e-09
3.6775e-09
-3.64379e-08
5.76421e-08
-1.03517e-07
1.33635e-07
-1.97488e-07
1.97338e-07
-3.10527e-07
2.42766e-07
-4.34759e-07
2.69583e-07
-5.63096e-07
2.79975e-07
-6.89635e-07
2.76993e-07
-8.09724e-07
2.63687e-07
-9.19861e-07
2.42742e-07
-1.01752e-06
2.16367e-07
-1.10098e-06
1.86302e-07
-1.16912e-06
1.5388e-07
-1.2213e-06
1.20107e-07
-1.25725e-06
8.57378e-08
-1.27697e-06
5.13401e-08
-1.28068e-06
1.73479e-08
-1.26875e-06
-1.58982e-08
-1.24171e-06
-4.80942e-08
-1.20026e-06
-7.89479e-08
-1.14517e-06
-1.08194e-07
-1.07736e-06
-1.35618e-07
-9.97767e-07
-1.61052e-07
-9.07405e-07
-1.84375e-07
-8.0731e-07
-2.05507e-07
-6.9853e-07
-2.24407e-07
-5.82118e-07
-2.41056e-07
-4.59117e-07
-2.55464e-07
-3.30544e-07
-2.67683e-07
-1.97385e-07
-2.77775e-07
-6.05939e-08
-2.85803e-07
7.88423e-08
-2.91781e-07
2.19935e-07
-2.95704e-07
3.61827e-07
-2.97712e-07
5.03775e-07
-2.98015e-07
6.45083e-07
-2.96787e-07
7.85117e-07
-2.94175e-07
9.23301e-07
-2.90319e-07
1.05911e-06
-2.8534e-07
1.19209e-06
-2.79342e-07
1.32185e-06
-2.72437e-07
1.44804e-06
-2.64764e-07
1.57038e-06
-2.56466e-07
1.6886e-06
-2.47671e-07
1.80251e-06
-2.38479e-07
1.91197e-06
-2.28982e-07
2.01684e-06
-2.19261e-07
2.11705e-06
-2.09369e-07
2.21257e-06
-1.99362e-07
2.30338e-06
-1.89313e-07
2.38949e-06
-1.79297e-07
2.47093e-06
-1.69375e-07
2.54777e-06
-1.59595e-07
2.62009e-06
-1.49999e-07
2.68798e-06
-1.40624e-07
2.75156e-06
-1.31501e-07
2.81095e-06
-1.22656e-07
2.8663e-06
-1.14108e-07
2.91773e-06
-1.05876e-07
2.96541e-06
-9.7973e-08
3.00949e-06
-9.04073e-08
3.05013e-06
-8.31854e-08
3.08748e-06
-7.63106e-08
3.12171e-06
-6.97834e-08
3.15298e-06
-6.3602e-08
3.18145e-06
-5.77627e-08
3.20728e-06
-5.22599e-08
3.23061e-06
-4.70866e-08
3.2516e-06
-4.22345e-08
3.2704e-06
-3.76944e-08
3.28715e-06
-3.34561e-08
3.30198e-06
-2.95089e-08
3.31504e-06
-2.58414e-08
3.32643e-06
-2.2442e-08
3.3363e-06
-1.92989e-08
3.34475e-06
-1.64001e-08
3.35189e-06
-1.37336e-08
3.35783e-06
-1.12876e-08
3.36267e-06
-9.05053e-09
3.3665e-06
-7.01118e-09
3.36942e-06
-5.15871e-09
3.37151e-06
-3.48264e-09
3.37284e-06
-1.97287e-09
3.3735e-06
-6.19027e-10
3.37355e-06
5.93989e-10
3.37305e-06
1.68274e-09
3.37207e-06
2.6564e-09
3.37065e-06
3.51986e-09
3.36885e-06
4.27906e-09
3.36671e-06
4.94088e-09
3.36427e-06
5.51249e-09
3.36158e-06
6.00104e-09
3.35868e-06
6.41346e-09
3.35559e-06
6.75641e-09
3.35235e-06
7.03615e-09
3.34899e-06
7.25854e-09
3.34554e-06
7.42903e-09
3.34201e-06
7.55268e-09
3.33842e-06
7.63413e-09
3.33481e-06
7.67768e-09
3.33118e-06
7.68731e-09
3.32755e-06
7.66667e-09
3.32393e-06
7.61912e-09
3.32033e-06
7.54772e-09
3.31678e-06
7.45532e-09
3.31326e-06
7.34448e-09
3.30981e-06
7.21756e-09
3.30641e-06
7.07673e-09
3.30308e-06
6.92399e-09
3.29983e-06
6.76116e-09
3.29665e-06
6.58994e-09
3.29355e-06
6.41185e-09
3.29054e-06
6.22827e-09
3.28761e-06
6.04048e-09
3.28477e-06
5.84958e-09
3.28203e-06
5.65663e-09
3.27937e-06
5.46255e-09
3.2768e-06
5.26822e-09
3.27433e-06
5.07442e-09
3.27195e-06
4.88186e-09
3.26965e-06
4.69117e-09
3.26745e-06
4.50292e-09
3.26534e-06
4.31764e-09
3.26331e-06
4.13579e-09
3.26137e-06
3.9578e-09
3.25951e-06
3.78407e-09
3.25773e-06
3.61494e-09
3.25603e-06
3.45076e-09
3.25441e-06
3.29184e-09
3.25286e-06
3.1385e-09
3.25138e-06
2.99106e-09
3.24997e-06
2.84984e-09
3.24863e-06
2.7152e-09
3.24735e-06
2.5875e-09
3.24613e-06
2.46714e-09
3.24496e-06
2.35458e-09
3.24384e-06
2.25031e-09
3.24277e-06
2.15494e-09
3.24174e-06
2.06917e-09
3.24075e-06
1.99381e-09
3.2398e-06
1.92984e-09
3.23886e-06
1.87844e-09
3.23795e-06
1.841e-09
3.23705e-06
1.81917e-09
3.23615e-06
1.81495e-09
3.23525e-06
1.83073e-09
3.23433e-06
1.8694e-09
3.23338e-06
1.93445e-09
3.23238e-06
2.03011e-09
3.23133e-06
2.16155e-09
3.23019e-06
2.33512e-09
3.22895e-06
2.55869e-09
3.22757e-06
2.8421e-09
3.22603e-06
3.19781e-09
3.22427e-06
3.64188e-09
3.22225e-06
4.19529e-09
3.21991e-06
4.88604e-09
3.21715e-06
5.75236e-09
3.21387e-06
6.8476e-09
3.20994e-06
8.24804e-09
3.20515e-06
1.00654e-08
3.19924e-06
1.24665e-08
3.19187e-06
1.57063e-08
3.18253e-06
2.01787e-08
3.17053e-06
2.64994e-08
3.15496e-06
3.56281e-08
3.13467e-06
4.90264e-08
3.10854e-06
6.88015e-08
3.07628e-06
9.76356e-08
3.03973e-06
1.37408e-07
3.00064e-06
1.84255e-07
2.95294e-06
2.26448e-07
2.8925e-06
2.61966e-07
2.82597e-06
2.97487e-07
2.75031e-06
3.21714e-07
2.66068e-06
3.29306e-07
2.5597e-06
3.29099e-07
2.44988e-06
3.25437e-07
2.33215e-06
3.193e-07
2.20587e-06
3.11251e-07
2.06757e-06
3.04452e-07
1.93498e-06
3.02705e-07
1.7906e-06
2.95251e-07
1.63784e-06
2.80415e-07
1.47893e-06
2.6385e-07
1.31483e-06
2.46286e-07
1.14653e-06
2.27093e-07
9.75417e-07
2.05053e-07
8.0277e-07
1.84422e-07
6.07612e-07
1.95158e-07
4.42085e-07
1.65527e-07
3.04106e-07
1.37979e-07
1.91405e-07
1.12701e-07
1.04197e-07