/*--------------------------------*- C++ -*----------------------------------*\
| =========                 |                                                 |
| \\      /  F ield         | foam-extend: Open Source CFD                    |
|  \\    /   O peration     | Version:     4.1                                |
|   \\  /    A nd           | Web:         http://www.foam-extend.org         |
|    \\/     M anipulation  |                                                 |
\*---------------------------------------------------------------------------*/
FoamFile
{
    version     2.0;
    format      ascii;
    class       volVectorField;
    location    "0.09";
    object      U;
}
// * * * * * * * * * * * * * * * * * * * * * * * * * * * * * * * * * * * * * //

dimensions      [0 1 -1 0 0 0 0];

internalField   nonuniform List<vector> 
15000
(
(0 0 0)
(0 0 0)
(0 0 0)
(0 0 0)
(0 0 0)
(0 0 0)
(0 0 0)
(0 0 0)
(0 0 0)
(0 0 0)
(0 0 0)
(0 0 0)
(0 0 0)
(0 0 0)
(0 0 0)
(0 0 0)
(0 0 0)
(0 0 0)
(0 0 0)
(0 0 0)
(0 0 0)
(0 0 0)
(0 0 0)
(0 0 0)
(0 0 0)
(0 0 0)
(0 0 0)
(0 0 0)
(0 0 0)
(0 0 0)
(0 0 0)
(0 0 0)
(0 0 0)
(0 0 0)
(0 0 0)
(0 0 0)
(0 0 0)
(0 0 0)
(0 0 0)
(0 0 0)
(0 0 0)
(0 0 0)
(0 0 0)
(0 0 0)
(0 0 0)
(0 0 0)
(0 0 0)
(0 0 0)
(0 0 0)
(0 0 0)
(0 0 0)
(0 0 0)
(0 0 0)
(0 0 0)
(0 0 0)
(0 0 0)
(0 0 0)
(0 0 0)
(0 0 0)
(0 0 0)
(0 0 0)
(0 0 0)
(0 0 0)
(0 0 0)
(0 0 0)
(0 0 0)
(0 0 0)
(0 0 0)
(0 0 0)
(0 0 0)
(0 0 0)
(0 0 0)
(0 0 0)
(0 0 0)
(0 0 0)
(0 0 0)
(0 0 0)
(0 0 0)
(0 0 0)
(0 0 0)
(0 0 0)
(0 0 0)
(0 0 0)
(0 0 0)
(0 0 0)
(0 0 0)
(0 0 0)
(0 0 0)
(0 0 0)
(0 0 0)
(0 0 0)
(0 0 0)
(0 0 0)
(0 0 0)
(0 0 0)
(0 0 0)
(0 0 0)
(0 0 0)
(0 0 0)
(0 0 0)
(0 0 0)
(0 0 0)
(0 0 0)
(0 0 0)
(0 0 0)
(0 0 0)
(0 0 0)
(0 0 0)
(0 0 0)
(0 0 0)
(0 0 0)
(0 0 0)
(0 0 0)
(0 0 0)
(0 0 0)
(0 0 0)
(0 0 0)
(0 0 0)
(0 0 0)
(0 0 0)
(0 0 0)
(0 0 0)
(0 0 0)
(0 0 0)
(0 0 0)
(0 0 0)
(0 0 0)
(0 0 0)
(0 0 0)
(0 0 0)
(0 0 0)
(0 0 0)
(0 0 0)
(0 0 0)
(0 0 0)
(0 0 0)
(0 0 0)
(0 0 0)
(0 0 0)
(0 0 0)
(0 0 0)
(0 0 0)
(0 0 0)
(0 0 0)
(0 0 0)
(0 0 0)
(0 0 0)
(0 0 0)
(0 0 0)
(0 0 0)
(0 0 0)
(0 0 0)
(0 0 0)
(0 0 0)
(0 0 0)
(0 0 0)
(0 0 0)
(0 0 0)
(0 0 0)
(0 0 0)
(0 0 0)
(0 0 0)
(0 0 0)
(0 0 0)
(0 0 0)
(0 0 0)
(0 0 0)
(0 0 0)
(0 0 0)
(0 0 0)
(0 0 0)
(0 0 0)
(0 0 0)
(0 0 0)
(0 0 0)
(0 0 0)
(0 0 0)
(0 0 0)
(0 0 0)
(0 0 0)
(0 0 0)
(0 0 0)
(0 0 0)
(0 0 0)
(0 0 0)
(0 0 0)
(0 0 0)
(0 0 0)
(0 0 0)
(0 0 0)
(0 0 0)
(0 0 0)
(0 0 0)
(0 0 0)
(0 0 0)
(0 0 0)
(0 0 0)
(0 0 0)
(0 0 0)
(0 0 0)
(0 0 0)
(0 0 0)
(0 0 0)
(0 0 0)
(0 0 0)
(0 0 0)
(0 0 0)
(0 0 0)
(0 0 0)
(0 0 0)
(0 0 0)
(0 0 0)
(0 0 0)
(0 0 0)
(0 0 0)
(0 0 0)
(0 0 0)
(0 0 0)
(0 0 0)
(0 0 0)
(0 0 0)
(0 0 0)
(0 0 0)
(0 0 0)
(0 0 0)
(0 0 0)
(0 0 0)
(0 0 0)
(0 0 0)
(0 0 0)
(0 0 0)
(0 0 0)
(0 0 0)
(0 0 0)
(0 0 0)
(0 0 0)
(0 0 0)
(0 0 0)
(0 0 0)
(0 0 0)
(0 0 0)
(0 0 0)
(0 0 0)
(0 0 0)
(0 0 0)
(0 0 0)
(0 0 0)
(0 0 0)
(0 0 0)
(0 0 0)
(0 0 0)
(0 0 0)
(0 0 0)
(0 0 0)
(0 0 0)
(0 0 0)
(0 0 0)
(0 0 0)
(0 0 0)
(0 0 0)
(0 0 0)
(0 0 0)
(0 0 0)
(0 0 0)
(0 0 0)
(0 0 0)
(0 0 0)
(0 0 0)
(0 0 0)
(0 0 0)
(0 0 0)
(0 0 0)
(0 0 0)
(0 0 0)
(0 0 0)
(0 0 0)
(0 0 0)
(0 0 0)
(0 0 0)
(0 0 0)
(0 0 0)
(0 0 0)
(0 0 0)
(0 0 0)
(0 0 0)
(0 0 0)
(0 0 0)
(0 0 0)
(0 0 0)
(0 0 0)
(0 0 0)
(0 0 0)
(0 0 0)
(0 0 0)
(0 0 0)
(0 0 0)
(0 0 0)
(0 0 0)
(0 0 0)
(0 0 0)
(0 0 0)
(0 0 0)
(0 0 0)
(0 0 0)
(0 0 0)
(0 0 0)
(0 0 0)
(0 0 0)
(0 0 0)
(0 0 0)
(0 0 0)
(0 0 0)
(0 0 0)
(0 0 0)
(0 0 0)
(0 0 0)
(0 0 0)
(0 0 0)
(0 0 0)
(0 0 0)
(0 0 0)
(0 0 0)
(0 0 0)
(0 0 0)
(0 0 0)
(0 0 0)
(0 0 0)
(0 0 0)
(0 0 0)
(0 0 0)
(0 0 0)
(0 0 0)
(0 0 0)
(0 0 0)
(0 0 0)
(0 0 0)
(0 0 0)
(0 0 0)
(0 0 0)
(0 0 0)
(0 0 0)
(0 0 0)
(0 0 0)
(0 0 0)
(0 0 0)
(0 0 0)
(0 0 0)
(0 0 0)
(0 0 0)
(0 0 0)
(0 0 0)
(0 0 0)
(0 0 0)
(0 0 0)
(0 0 0)
(0 0 0)
(0 0 0)
(0 0 0)
(0 0 0)
(0 0 0)
(0 0 0)
(0 0 0)
(0 0 0)
(0 0 0)
(0 0 0)
(0 0 0)
(0 0 0)
(0 0 0)
(0 0 0)
(0 0 0)
(0 0 0)
(0 0 0)
(0 0 0)
(0 0 0)
(0 0 0)
(0 0 0)
(0 0 0)
(0 0 0)
(0 0 0)
(0 0 0)
(0 0 0)
(0 0 0)
(0 0 0)
(0 0 0)
(0 0 0)
(0 0 0)
(0 0 0)
(0 0 0)
(0 0 0)
(0 0 0)
(0 0 0)
(0 0 0)
(0 0 0)
(0 0 0)
(0 0 0)
(0 0 0)
(0 0 0)
(0 0 0)
(0 0 0)
(0 0 0)
(0 0 0)
(0 0 0)
(0 0 0)
(0 0 0)
(0 0 0)
(0 0 0)
(0 0 0)
(0 0 0)
(0 0 0)
(0 0 0)
(0 0 0)
(0 0 0)
(0 0 0)
(0 0 0)
(0 0 0)
(0 0 0)
(0 0 0)
(0 0 0)
(0 0 0)
(0 0 0)
(0 0 0)
(0 0 0)
(0 0 0)
(0 0 0)
(0 0 0)
(0 0 0)
(0 0 0)
(0 0 0)
(0 0 0)
(0 0 0)
(0 0 0)
(0 0 0)
(0 0 0)
(0 0 0)
(0 0 0)
(0 0 0)
(0 0 0)
(0 0 0)
(0 0 0)
(0 0 0)
(0 0 0)
(0 0 0)
(0 0 0)
(0 0 0)
(0 0 0)
(0 0 0)
(0 0 0)
(0 0 0)
(0 0 0)
(0 0 0)
(0 0 0)
(0 0 0)
(0 0 0)
(0 0 0)
(0 0 0)
(0 0 0)
(0 0 0)
(0 0 0)
(0 0 0)
(0 0 0)
(0 0 0)
(0 0 0)
(0 0 0)
(0 0 0)
(0 0 0)
(0 0 0)
(0 0 0)
(0 0 0)
(0 0 0)
(0 0 0)
(0 0 0)
(0 0 0)
(0 0 0)
(0 0 0)
(0 0 0)
(0 0 0)
(0 0 0)
(0 0 0)
(0 0 0)
(0 0 0)
(0 0 0)
(0 0 0)
(0 0 0)
(0 0 0)
(0 0 0)
(0 0 0)
(0 0 0)
(0 0 0)
(0 0 0)
(0 0 0)
(0 0 0)
(0 0 0)
(0 0 0)
(0 0 0)
(0 0 0)
(0 0 0)
(0 0 0)
(0 0 0)
(0 0 0)
(0 0 0)
(0 0 0)
(0 0 0)
(0 0 0)
(0 0 0)
(0 0 0)
(0 0 0)
(0 0 0)
(0 0 0)
(0 0 0)
(0 0 0)
(0 0 0)
(0 0 0)
(0 0 0)
(0 0 0)
(0 0 0)
(0 0 0)
(0 0 0)
(0 0 0)
(0 0 0)
(0 0 0)
(0 0 0)
(0 0 0)
(0 0 0)
(0 0 0)
(0 0 0)
(0 0 0)
(0 0 0)
(0 0 0)
(0 0 0)
(0 0 0)
(0 0 0)
(0 0 0)
(0 0 0)
(0 0 0)
(0 0 0)
(0 0 0)
(0 0 0)
(0 0 0)
(0 0 0)
(0 0 0)
(0 0 0)
(0 0 0)
(0 0 0)
(0 0 0)
(0 0 0)
(0 0 0)
(0 0 0)
(0 0 0)
(0 0 0)
(0 0 0)
(0 0 0)
(0 0 0)
(0 0 0)
(0 0 0)
(0 0 0)
(0 0 0)
(0 0 0)
(0 0 0)
(0 0 0)
(0 0 0)
(0 0 0)
(0 0 0)
(0 0 0)
(0 0 0)
(0 0 0)
(0 0 0)
(0 0 0)
(0 0 0)
(0 0 0)
(0 0 0)
(0 0 0)
(0 0 0)
(0 0 0)
(0 0 0)
(0 0 0)
(0 0 0)
(0 0 0)
(0 0 0)
(0 0 0)
(0 0 0)
(0 0 0)
(0 0 0)
(0 0 0)
(0 0 0)
(0 0 0)
(0 0 0)
(0 0 0)
(0 0 0)
(0 0 0)
(0 0 0)
(0 0 0)
(0 0 0)
(0 0 0)
(0 0 0)
(0 0 0)
(0 0 0)
(0 0 0)
(0 0 0)
(0 0 0)
(0 0 0)
(0 0 0)
(0 0 0)
(0 0 0)
(0 0 0)
(0 0 0)
(0 0 0)
(0 0 0)
(0 0 0)
(0 0 0)
(0 0 0)
(0 0 0)
(0 0 0)
(0 0 0)
(0 0 0)
(0 0 0)
(0 0 0)
(0 0 0)
(0 0 0)
(0 0 0)
(0 0 0)
(0 0 0)
(0 0 0)
(0 0 0)
(0 0 0)
(0 0 0)
(0 0 0)
(0 0 0)
(0 0 0)
(0 0 0)
(0 0 0)
(0 0 0)
(0 0 0)
(0 0 0)
(0 0 0)
(0 0 0)
(0 0 0)
(0 0 0)
(0 0 0)
(0 0 0)
(0 0 0)
(0 0 0)
(0 0 0)
(0 0 0)
(0 0 0)
(0 0 0)
(0 0 0)
(0 0 0)
(0 0 0)
(0 0 0)
(0 0 0)
(0 0 0)
(0 0 0)
(0 0 0)
(0 0 0)
(0 0 0)
(0 0 0)
(0 0 0)
(0 0 0)
(0 0 0)
(0 0 0)
(0 0 0)
(0 0 0)
(0 0 0)
(0 0 0)
(0 0 0)
(0 0 0)
(0 0 0)
(0 0 0)
(0 0 0)
(0 0 0)
(0 0 0)
(0 0 0)
(0 0 0)
(0 0 0)
(0 0 0)
(0 0 0)
(0 0 0)
(0 0 0)
(0 0 0)
(0 0 0)
(0 0 0)
(0 0 0)
(0 0 0)
(0 0 0)
(0 0 0)
(0 0 0)
(0 0 0)
(0 0 0)
(0 0 0)
(0 0 0)
(0 0 0)
(0 0 0)
(0 0 0)
(0 0 0)
(0 0 0)
(0 0 0)
(0 0 0)
(0 0 0)
(0 0 0)
(0 0 0)
(0 0 0)
(0 0 0)
(0 0 0)
(0 0 0)
(0 0 0)
(0 0 0)
(0 0 0)
(0 0 0)
(0 0 0)
(0 0 0)
(0 0 0)
(0 0 0)
(0 0 0)
(0 0 0)
(0 0 0)
(0 0 0)
(0 0 0)
(0 0 0)
(0 0 0)
(0 0 0)
(0 0 0)
(0 0 0)
(0 0 0)
(0 0 0)
(0 0 0)
(0 0 0)
(0 0 0)
(0 0 0)
(0 0 0)
(0 0 0)
(0 0 0)
(0 0 0)
(0 0 0)
(0 0 0)
(0 0 0)
(0 0 0)
(0 0 0)
(0 0 0)
(0 0 0)
(0 0 0)
(0 0 0)
(0 0 0)
(0 0 0)
(0 0 0)
(0 0 0)
(0 0 0)
(0 0 0)
(0 0 0)
(0 0 0)
(0 0 0)
(0 0 0)
(0 0 0)
(0 0 0)
(0 0 0)
(0 0 0)
(0 0 0)
(0 0 0)
(0 0 0)
(0 0 0)
(0 0 0)
(0 0 0)
(0 0 0)
(0 0 0)
(0 0 0)
(0 0 0)
(0 0 0)
(0 0 0)
(0 0 0)
(0 0 0)
(0 0 0)
(0 0 0)
(0 0 0)
(0 0 0)
(0 0 0)
(0 0 0)
(0 0 0)
(0 0 0)
(0 0 0)
(0 0 0)
(0 0 0)
(0 0 0)
(0 0 0)
(0 0 0)
(0 0 0)
(0 0 0)
(0 0 0)
(0 0 0)
(0 0 0)
(0 0 0)
(0 0 0)
(0 0 0)
(0 0 0)
(0 0 0)
(0 0 0)
(0 0 0)
(0 0 0)
(0 0 0)
(0 0 0)
(0 0 0)
(0 0 0)
(0 0 0)
(0 0 0)
(0 0 0)
(0 0 0)
(0 0 0)
(0 0 0)
(0 0 0)
(0 0 0)
(0 0 0)
(0 0 0)
(0 0 0)
(0 0 0)
(0 0 0)
(0 0 0)
(0 0 0)
(0 0 0)
(0 0 0)
(0 0 0)
(0 0 0)
(0 0 0)
(0 0 0)
(0 0 0)
(0 0 0)
(0 0 0)
(0 0 0)
(0 0 0)
(0 0 0)
(0 0 0)
(0 0 0)
(0 0 0)
(0 0 0)
(0 0 0)
(0 0 0)
(0 0 0)
(0 0 0)
(0 0 0)
(0 0 0)
(0 0 0)
(0 0 0)
(0 0 0)
(0 0 0)
(0 0 0)
(0 0 0)
(0 0 0)
(0 0 0)
(0 0 0)
(0 0 0)
(0 0 0)
(0 0 0)
(0 0 0)
(0 0 0)
(0 0 0)
(0 0 0)
(0 0 0)
(0 0 0)
(0 0 0)
(0 0 0)
(0 0 0)
(0 0 0)
(0 0 0)
(0 0 0)
(0 0 0)
(0 0 0)
(0 0 0)
(0 0 0)
(0 0 0)
(0 0 0)
(0 0 0)
(0 0 0)
(0 0 0)
(0 0 0)
(0 0 0)
(0 0 0)
(0 0 0)
(0 0 0)
(0 0 0)
(0 0 0)
(0 0 0)
(0 0 0)
(0 0 0)
(0 0 0)
(0 0 0)
(0 0 0)
(0 0 0)
(0 0 0)
(0 0 0)
(0 0 0)
(0 0 0)
(0 0 0)
(0 0 0)
(0 0 0)
(0 0 0)
(0 0 0)
(0 0 0)
(0 0 0)
(0 0 0)
(0 0 0)
(0 0 0)
(0 0 0)
(0 0 0)
(0 0 0)
(0 0 0)
(0 0 0)
(0 0 0)
(0 0 0)
(0 0 0)
(0 0 0)
(0 0 0)
(0 0 0)
(0 0 0)
(0 0 0)
(0 0 0)
(0 0 0)
(0 0 0)
(0 0 0)
(0 0 0)
(0 0 0)
(0 0 0)
(0 0 0)
(0 0 0)
(0 0 0)
(0 0 0)
(0 0 0)
(0 0 0)
(0 0 0)
(0 0 0)
(0 0 0)
(0 0 0)
(0 0 0)
(0 0 0)
(0 0 0)
(0 0 0)
(0 0 0)
(0 0 0)
(0 0 0)
(0 0 0)
(0 0 0)
(0 0 0)
(0 0 0)
(0 0 0)
(0 0 0)
(0 0 0)
(0 0 0)
(0 0 0)
(0 0 0)
(0 0 0)
(0 0 0)
(0 0 0)
(0 0 0)
(0 0 0)
(0 0 0)
(0 0 0)
(0 0 0)
(0 0 0)
(0 0 0)
(0 0 0)
(0 0 0)
(0 0 0)
(0 0 0)
(0 0 0)
(0 0 0)
(0 0 0)
(0 0 0)
(0 0 0)
(0 0 0)
(0 0 0)
(0 0 0)
(0 0 0)
(0 0 0)
(0 0 0)
(0 0 0)
(0 0 0)
(0 0 0)
(0 0 0)
(0 0 0)
(0 0 0)
(0 0 0)
(0 0 0)
(0 0 0)
(0 0 0)
(0 0 0)
(0 0 0)
(0 0 0)
(0 0 0)
(0 0 0)
(0 0 0)
(0 0 0)
(0 0 0)
(0 0 0)
(0 0 0)
(0 0 0)
(0 0 0)
(0 0 0)
(0 0 0)
(0 0 0)
(0 0 0)
(0 0 0)
(0 0 0)
(0 0 0)
(0 0 0)
(0 0 0)
(0 0 0)
(0 0 0)
(0 0 0)
(0 0 0)
(0 0 0)
(0 0 0)
(0 0 0)
(0 0 0)
(0 0 0)
(0 0 0)
(0 0 0)
(0 0 0)
(0 0 0)
(0 0 0)
(0.000114126 -0.00010877 0)
(0.000408095 -0.000174545 0)
(-0.000489735 -0.000113279 0)
(-0.00372908 -5.67122e-05 0)
(-0.00852956 -4.20135e-05 0)
(-0.0142649 -4.58511e-05 0)
(-0.0204476 -5.39074e-05 0)
(-0.0267094 -5.98815e-05 0)
(-0.0327816 -6.14645e-05 0)
(-0.0384742 -5.82738e-05 0)
(-0.0436568 -5.08247e-05 0)
(-0.048243 -3.99849e-05 0)
(-0.0521779 -2.6687e-05 0)
(-0.0554289 -1.17846e-05 0)
(-0.0579795 3.99639e-06 0)
(-0.0598249 2.00236e-05 0)
(-0.060968 3.57255e-05 0)
(-0.0614181 5.09424e-05 0)
(-0.0611925 6.54483e-05 0)
(-0.06031 7.88864e-05 0)
(-0.0587975 9.12441e-05 0)
(-0.0566869 0.000102529 0)
(-0.0540151 0.000112753 0)
(-0.0508229 0.000121924 0)
(-0.047154 0.000130063 0)
(-0.0430541 0.000137178 0)
(-0.0385698 0.000143318 0)
(-0.0337486 0.00014854 0)
(-0.0286375 0.000152834 0)
(-0.0232824 0.000156286 0)
(-0.017728 0.000159033 0)
(-0.0120171 0.000160804 0)
(-0.00619 0.000160972 0)
(-0.000286494 0.000160475 0)
(0.00565039 0.000160319 0)
(0.0115838 0.000159963 0)
(0.0174797 0.000158987 0)
(0.0233082 0.00015382 0)
(0.0291435 7.27192e-07 0)
(0.0349162 -0.000302843 0)
(0.0404791 -0.000600019 0)
(0.0458089 -0.00088256 0)
(0.0508982 -0.00115795 0)
(0.0557364 -0.00135072 0)
(0.0603654 -0.00122038 0)
(0.0648802 -0.000867281 0)
(0.069273 -0.000547172 0)
(0.0735378 -0.000251348 0)
(0.077661 1.74936e-05 0)
(0.0815126 0.000112446 0)
(0.0850967 0.000110098 0)
(0.0884779 0.00010535 0)
(0.0916574 0.000100534 0)
(0.0946388 9.57277e-05 0)
(0.0974268 9.09457e-05 0)
(0.100027 8.62064e-05 0)
(0.102445 8.15278e-05 0)
(0.104688 7.69267e-05 0)
(0.106763 7.24179e-05 0)
(0.108676 6.80143e-05 0)
(0.110435 6.37267e-05 0)
(0.112047 5.95644e-05 0)
(0.11352 5.55353e-05 0)
(0.114862 5.16461e-05 0)
(0.116078 4.79026e-05 0)
(0.117178 4.43093e-05 0)
(0.118167 4.08697e-05 0)
(0.119054 3.75859e-05 0)
(0.119844 3.44588e-05 0)
(0.120544 3.14878e-05 0)
(0.12116 2.86713e-05 0)
(0.121699 2.6007e-05 0)
(0.122166 2.34922e-05 0)
(0.122566 2.11239e-05 0)
(0.122906 1.88989e-05 0)
(0.123189 1.68137e-05 0)
(0.123422 1.48644e-05 0)
(0.123607 1.30466e-05 0)
(0.12375 1.13551e-05 0)
(0.123854 9.78427e-06 0)
(0.123923 8.32677e-06 0)
(0.123961 6.97131e-06 0)
(0.123971 5.70536e-06 0)
(0.123956 4.57054e-06 0)
(0.123919 3.58455e-06 0)
(0.123861 2.6868e-06 0)
(0.123786 1.84778e-06 0)
(0.123695 1.07205e-06 0)
(0.123591 3.6186e-07 0)
(0.123475 -2.84424e-07 0)
(0.123349 -8.69088e-07 0)
(0.123215 -1.39461e-06 0)
(0.123075 -1.86376e-06 0)
(0.122929 -2.27959e-06 0)
(0.122778 -2.64538e-06 0)
(0.122625 -2.96457e-06 0)
(0.122469 -3.2407e-06 0)
(0.122313 -3.4773e-06 0)
(0.122155 -3.67769e-06 0)
(0.121998 -3.8449e-06 0)
(0.121841 -3.98163e-06 0)
(0.121686 -4.09024e-06 0)
(0.121533 -4.17291e-06 0)
(0.121381 -4.23182e-06 0)
(0.121232 -4.26919e-06 0)
(0.121086 -4.28734e-06 0)
(0.120943 -4.28853e-06 0)
(0.120804 -4.27476e-06 0)
(0.120668 -4.24766e-06 0)
(0.120535 -4.20846e-06 0)
(0.120407 -4.15812e-06 0)
(0.120282 -4.09762e-06 0)
(0.120161 -4.02808e-06 0)
(0.120044 -3.95086e-06 0)
(0.119931 -3.86738e-06 0)
(0.119822 -3.7789e-06 0)
(0.119718 -3.68639e-06 0)
(0.119617 -3.59047e-06 0)
(0.11952 -3.49164e-06 0)
(0.119427 -3.39033e-06 0)
(0.119338 -3.28713e-06 0)
(0.119253 -3.1827e-06 0)
(0.119171 -3.07768e-06 0)
(0.119094 -2.97261e-06 0)
(0.119019 -2.86791e-06 0)
(0.118948 -2.76396e-06 0)
(0.118881 -2.66118e-06 0)
(0.118817 -2.56005e-06 0)
(0.118755 -2.46105e-06 0)
(0.118697 -2.36458e-06 0)
(0.118642 -2.2709e-06 0)
(0.118589 -2.18014e-06 0)
(0.118539 -2.09244e-06 0)
(0.118492 -2.00803e-06 0)
(0.118447 -1.92723e-06 0)
(0.118404 -1.8505e-06 0)
(0.118363 -1.77834e-06 0)
(0.118324 -1.7113e-06 0)
(0.118287 -1.64994e-06 0)
(0.118251 -1.59486e-06 0)
(0.118216 -1.54675e-06 0)
(0.118182 -1.50633e-06 0)
(0.118149 -1.47448e-06 0)
(0.118117 -1.45225e-06 0)
(0.118085 -1.44095e-06 0)
(0.118052 -1.44229e-06 0)
(0.118019 -1.45832e-06 0)
(0.117985 -1.49157e-06 0)
(0.117949 -1.54514e-06 0)
(0.117911 -1.62287e-06 0)
(0.117869 -1.72964e-06 0)
(0.117824 -1.87171e-06 0)
(0.117774 -2.05722e-06 0)
(0.117718 -2.29685e-06 0)
(0.117653 -2.60495e-06 0)
(0.11758 -3.00114e-06 0)
(0.117494 -3.51269e-06 0)
(0.117394 -4.17799e-06 0)
(0.117275 -5.05169e-06 0)
(0.117133 -6.21188e-06 0)
(0.11696 -7.76988e-06 0)
(0.116748 -9.88087e-06 0)
(0.116482 -1.2746e-05 0)
(0.116139 -1.65766e-05 0)
(0.115682 -2.14511e-05 0)
(0.115049 -2.66836e-05 0)
(0.114124 -2.77653e-05 0)
(0.112641 -5.26546e-06 0)
(0.109864 0.000143496 0)
(0.104176 0.00114771 0)
(0.0898458 0.00461106 0)
(0.0625451 0.00352549 0)
(0.0303805 0.00191635 0)
(0 0 0)
(0 0 0)
(0 0 0)
(0 0 0)
(0 0 0)
(0 0 0)
(0 0 0)
(0 0 0)
(0 0 0)
(0 0 0)
(0 0 0)
(0 0 0)
(0 0 0)
(0 0 0)
(0 0 0)
(0 0 0)
(0 0 0)
(0 0 0)
(0 0 0)
(0 0 0)
(0 0 0)
(0 0 0)
(0 0 0)
(0 0 0)
(0 0 0)
(0 0 0)
(0 0 0)
(0 0 0)
(0 0 0)
(0 0 0)
(0 0 0)
(0 0 0)
(0 0 0)
(0 0 0)
(0 0 0)
(0 0 0)
(0 0 0)
(0 0 0)
(0 0 0)
(0 0 0)
(0 0 0)
(0 0 0)
(0 0 0)
(0 0 0)
(0 0 0)
(0 0 0)
(0 0 0)
(0 0 0)
(0 0 0)
(0 0 0)
(0 0 0)
(0 0 0)
(0 0 0)
(0 0 0)
(0 0 0)
(0 0 0)
(0 0 0)
(0 0 0)
(0 0 0)
(0 0 0)
(0 0 0)
(0 0 0)
(0 0 0)
(0 0 0)
(0 0 0)
(0 0 0)
(0 0 0)
(0 0 0)
(0 0 0)
(0 0 0)
(0 0 0)
(0 0 0)
(0 0 0)
(0 0 0)
(0 0 0)
(0 0 0)
(0 0 0)
(0.000374678 -0.000579362 0)
(0.000314537 -5.50874e-05 0)
(-0.00590481 0.00261581 0)
(-0.0198357 0.00491985 0)
(-0.0397297 0.00648494 0)
(-0.0634163 0.00736649 0)
(-0.089009 0.00770762 0)
(-0.115008 0.00764815 0)
(-0.140282 0.00730302 0)
(-0.164009 0.00676042 0)
(-0.185614 0.00608538 0)
(-0.204708 0.00532467 0)
(-0.22104 0.00451135 0)
(-0.234458 0.0036687 0)
(-0.244883 0.00281314 0)
(-0.252292 0.00195629 0)
(-0.256695 0.00110671 0)
(-0.258137 0.000272718 0)
(-0.256696 -0.000539944 0)
(-0.252455 -0.00132621 0)
(-0.245533 -0.00207843 0)
(-0.236068 -0.00278952 0)
(-0.224222 -0.00345379 0)
(-0.21017 -0.00406693 0)
(-0.194099 -0.00462579 0)
(-0.176203 -0.00512846 0)
(-0.156683 -0.00557366 0)
(-0.135738 -0.00596093 0)
(-0.113568 -0.00629127 0)
(-0.0903677 -0.00656583 0)
(-0.0663265 -0.00678639 0)
(-0.0416267 -0.00695702 0)
(-0.0164408 -0.00708056 0)
(0.00905927 -0.00715245 0)
(0.0346886 -0.00717207 0)
(0.0602983 -0.00714779 0)
(0.0857503 -0.00708664 0)
(0.11092 -0.00699407 0)
(0.135726 -0.00690039 0)
(0.160066 -0.00680171 0)
(0.183818 -0.00666632 0)
(0.206901 -0.00650443 0)
(0.229256 -0.00633067 0)
(0.250837 -0.00613911 0)
(0.271614 -0.00588321 0)
(0.291575 -0.00558474 0)
(0.310697 -0.00529448 0)
(0.328966 -0.00500243 0)
(0.346371 -0.00470281 0)
(0.362871 -0.00443111 0)
(0.378475 -0.00417915 0)
(0.393205 -0.00393111 0)
(0.407069 -0.00368773 0)
(0.420084 -0.00344992 0)
(0.432268 -0.00321858 0)
(0.443645 -0.00299444 0)
(0.454239 -0.00277812 0)
(0.464079 -0.00257007 0)
(0.473192 -0.00237066 0)
(0.481608 -0.00218015 0)
(0.489358 -0.00199869 0)
(0.496474 -0.00182636 0)
(0.502985 -0.00166318 0)
(0.508925 -0.00150908 0)
(0.514324 -0.00136393 0)
(0.519213 -0.00122758 0)
(0.523623 -0.00109981 0)
(0.527583 -0.000980368 0)
(0.531121 -0.000868999 0)
(0.534267 -0.000765412 0)
(0.537046 -0.000669306 0)
(0.539484 -0.000580366 0)
(0.541608 -0.000498272 0)
(0.543439 -0.000422695 0)
(0.545002 -0.000353306 0)
(0.546317 -0.000289777 0)
(0.547405 -0.000231785 0)
(0.548285 -0.000179017 0)
(0.548977 -0.000131176 0)
(0.549496 -8.79807e-05 0)
(0.54986 -4.91777e-05 0)
(0.550083 -1.45481e-05 0)
(0.550181 1.6142e-05 0)
(0.550167 4.34863e-05 0)
(0.550053 6.81436e-05 0)
(0.549848 9.01925e-05 0)
(0.549564 0.00010954 0)
(0.549208 0.000126307 0)
(0.548791 0.000140678 0)
(0.54832 0.000152845 0)
(0.547804 0.000162997 0)
(0.547249 0.000171321 0)
(0.546662 0.000177993 0)
(0.54605 0.000183182 0)
(0.545416 0.000187039 0)
(0.544767 0.000189705 0)
(0.544106 0.000191308 0)
(0.543438 0.000191962 0)
(0.542765 0.000191773 0)
(0.542091 0.000190836 0)
(0.541419 0.000189243 0)
(0.540751 0.000187073 0)
(0.540089 0.000184403 0)
(0.539435 0.000181298 0)
(0.538791 0.00017782 0)
(0.538159 0.000174021 0)
(0.537538 0.000169948 0)
(0.536932 0.000165644 0)
(0.536339 0.000161152 0)
(0.535762 0.000156511 0)
(0.535201 0.000151757 0)
(0.534656 0.000146922 0)
(0.534127 0.000142033 0)
(0.533616 0.000137114 0)
(0.533121 0.000132185 0)
(0.532644 0.000127264 0)
(0.532183 0.000122369 0)
(0.53174 0.000117516 0)
(0.531314 0.000112723 0)
(0.530905 0.000108003 0)
(0.530513 0.000103368 0)
(0.530137 9.88269e-05 0)
(0.529777 9.43897e-05 0)
(0.529432 9.00645e-05 0)
(0.529103 8.58588e-05 0)
(0.528789 8.17793e-05 0)
(0.52849 7.78311e-05 0)
(0.528204 7.4019e-05 0)
(0.527933 7.03477e-05 0)
(0.527674 6.68227e-05 0)
(0.527428 6.34504e-05 0)
(0.527194 6.02381e-05 0)
(0.526971 5.71932e-05 0)
(0.52676 5.43235e-05 0)
(0.526558 5.16372e-05 0)
(0.526367 4.91437e-05 0)
(0.526184 4.68533e-05 0)
(0.526009 4.47787e-05 0)
(0.525842 4.2935e-05 0)
(0.525681 4.13405e-05 0)
(0.525525 4.00178e-05 0)
(0.525374 3.89944e-05 0)
(0.525227 3.8303e-05 0)
(0.525082 3.79828e-05 0)
(0.524937 3.80802e-05 0)
(0.524792 3.86509e-05 0)
(0.524644 3.97623e-05 0)
(0.524491 4.14953e-05 0)
(0.524331 4.39477e-05 0)
(0.524161 4.72375e-05 0)
(0.523977 5.15085e-05 0)
(0.523777 5.69381e-05 0)
(0.523555 6.3747e-05 0)
(0.523305 7.22137e-05 0)
(0.523021 8.26952e-05 0)
(0.522695 9.56594e-05 0)
(0.522317 0.000111737 0)
(0.521873 0.000131805 0)
(0.521347 0.000157133 0)
(0.520717 0.000189629 0)
(0.51995 0.000232295 0)
(0.519004 0.000290083 0)
(0.517813 0.000371572 0)
(0.516275 0.000492394 0)
(0.514225 0.000682609 0)
(0.511386 0.00100347 0)
(0.507256 0.00158838 0)
(0.500809 0.00275466 0)
(0.490053 0.00537228 0)
(0.473066 0.0118254 0)
(0.446126 0.0238096 0)
(0.406535 0.0266096 0)
(0.352384 0.0236403 0)
(0.317552 0.0276437 0)
(0.269282 0.0286766 0)
(0.233107 0.0227441 -2.90032e-18)
(0.193528 0.0171581 -2.59655e-18)
(0.153354 0.0122951 0)
(0.112363 0.00782927 0)
(0.0703874 0.00392966 0)
(0.0306156 0.00179069 0)
(0 0 0)
(0 0 0)
(0 0 0)
(0 0 0)
(0 0 0)
(0 0 0)
(0 0 0)
(0 0 0)
(0 0 0)
(0 0 0)
(0 0 0)
(0 0 0)
(0 0 0)
(0 0 0)
(0 0 0)
(0 0 0)
(0 0 0)
(0 0 0)
(0 0 0)
(0 0 0)
(0 0 0)
(0 0 0)
(0 0 0)
(0 0 0)
(0 0 0)
(0 0 0)
(0 0 0)
(0 0 0)
(0 0 0)
(0 0 0)
(0 0 0)
(0 0 0)
(0 0 0)
(0 0 0)
(0 0 0)
(0 0 0)
(0 0 0)
(0 0 0)
(0 0 0)
(0 0 0)
(0 0 0)
(0 0 0)
(0 0 0)
(0 0 0)
(0 0 0)
(0 0 0)
(0 0 0)
(0 0 0)
(0 0 0)
(0 0 0)
(0 0 0)
(0 0 0)
(0 0 0)
(0 0 0)
(0 0 0)
(0 0 0)
(0 0 0)
(0 0 0)
(0 0 0)
(0 0 0)
(0 0 0)
(0 0 0)
(0 0 0)
(0 0 0)
(0 0 0)
(0 0 0)
(0 0 0)
(0 0 0)
(0 0 0)
(0.00030933 -9.99025e-05 0)
(-0.00236002 0.00464916 0)
(-0.0184159 0.0159557 0)
(-0.0465689 0.0259079 0)
(-0.0842637 0.0330154 0)
(-0.128231 0.0372137 0)
(-0.175401 0.0389231 0)
(-0.223198 0.0386738 0)
(-0.269593 0.0369589 0)
(-0.31306 0.0341888 0)
(-0.352501 0.0306855 0)
(-0.387152 0.0266926 0)
(-0.416511 0.0223906 0)
(-0.440271 0.0179116 0)
(-0.458273 0.0133522 0)
(-0.470466 0.00878347 0)
(-0.476881 0.00425925 0)
(-0.477617 -0.000175853 0)
(-0.472823 -0.00448717 0)
(-0.462687 -0.00864073 0)
(-0.447455 -0.0125984 0)
(-0.427415 -0.0163267 0)
(-0.402884 -0.019799 0)
(-0.374207 -0.0229955 0)
(-0.341748 -0.025902 0)
(-0.30588 -0.0285104 0)
(-0.266982 -0.0308156 0)
(-0.225436 -0.0328171 0)
(-0.181618 -0.0345204 0)
(-0.135894 -0.0359334 0)
(-0.0886219 -0.0370669 0)
(-0.0401434 -0.037934 0)
(0.00921997 -0.0385344 0)
(0.0590876 -0.0388636 0)
(0.109154 -0.0389423 0)
(0.159152 -0.0388035 0)
(0.208831 -0.0384735 0)
(0.257965 -0.0379716 0)
(0.306354 -0.0373092 0)
(0.353811 -0.0364875 0)
(0.400175 -0.0355209 0)
(0.44531 -0.0344436 0)
(0.489098 -0.0332912 0)
(0.531437 -0.0320949 0)
(0.57225 -0.0308724 0)
(0.611485 -0.0296328 0)
(0.649093 -0.0283762 0)
(0.685037 -0.0270924 0)
(0.719301 -0.0257747 0)
(0.751871 -0.0244371 0)
(0.782745 -0.0231 0)
(0.811934 -0.0217768 0)
(0.83946 -0.0204752 0)
(0.865349 -0.0192007 0)
(0.889638 -0.0179581 0)
(0.912367 -0.0167515 0)
(0.933582 -0.0155841 0)
(0.953332 -0.0144587 0)
(0.971669 -0.0133774 0)
(0.988649 -0.0123417 0)
(1.00433 -0.0113527 0)
(1.01877 -0.010411 0)
(1.03202 -0.00951693 0)
(1.04415 -0.00867027 0)
(1.05521 -0.00787061 0)
(1.06527 -0.00711727 0)
(1.07437 -0.00640931 0)
(1.08258 -0.00574563 0)
(1.08996 -0.00512495 0)
(1.09655 -0.00454588 0)
(1.1024 -0.00400695 0)
(1.10758 -0.0035066 0)
(1.11212 -0.0030432 0)
(1.11607 -0.00261511 0)
(1.11947 -0.00222065 0)
(1.12237 -0.00185814 0)
(1.12481 -0.00152593 0)
(1.12683 -0.00122239 0)
(1.12846 -0.000945949 0)
(1.12973 -0.00069511 0)
(1.13068 -0.000468453 0)
(1.13134 -0.000264654 0)
(1.13174 -8.23918e-05 0)
(1.1319 8.02422e-05 0)
(1.13185 0.00022615 0)
(1.13161 0.000357081 0)
(1.13121 0.000473264 0)
(1.13065 0.000575256 0)
(1.12996 0.00066393 0)
(1.12915 0.000740249 0)
(1.12824 0.000805191 0)
(1.12725 0.000859723 0)
(1.12618 0.000904781 0)
(1.12505 0.000941249 0)
(1.12387 0.000969954 0)
(1.12266 0.000991662 0)
(1.12141 0.00100708 0)
(1.12014 0.00101685 0)
(1.11885 0.00102156 0)
(1.11756 0.00102177 0)
(1.11626 0.00101797 0)
(1.11497 0.00101063 0)
(1.11368 0.00100017 0)
(1.11241 0.000986971 0)
(1.11114 0.000971383 0)
(1.1099 0.000953719 0)
(1.10868 0.000934264 0)
(1.10748 0.000913281 0)
(1.10631 0.000891012 0)
(1.10516 0.000867683 0)
(1.10405 0.000843502 0)
(1.10296 0.000818654 0)
(1.1019 0.000793305 0)
(1.10088 0.000767601 0)
(1.09989 0.000741671 0)
(1.09893 0.000715633 0)
(1.098 0.000689599 0)
(1.09711 0.00066367 0)
(1.09625 0.00063794 0)
(1.09542 0.000612492 0)
(1.09462 0.0005874 0)
(1.09386 0.000562727 0)
(1.09312 0.000538532 0)
(1.09242 0.000514869 0)
(1.09175 0.000491786 0)
(1.09111 0.000469326 0)
(1.09049 0.000447527 0)
(1.08991 0.000426424 0)
(1.08935 0.000406052 0)
(1.08882 0.000386447 0)
(1.08831 0.000367647 0)
(1.08783 0.000349692 0)
(1.08737 0.000332624 0)
(1.08693 0.00031649 0)
(1.08651 0.000301336 0)
(1.08611 0.000287219 0)
(1.08573 0.000274201 0)
(1.08537 0.000262356 0)
(1.08502 0.000251772 0)
(1.08468 0.000242553 0)
(1.08436 0.000234827 0)
(1.08404 0.000228745 0)
(1.08374 0.000224488 0)
(1.08344 0.000222273 0)
(1.08314 0.000222359 0)
(1.08283 0.000225055 0)
(1.08253 0.000230738 0)
(1.08221 0.000239861 0)
(1.08189 0.000252972 0)
(1.08154 0.000270739 0)
(1.08116 0.000293981 0)
(1.08076 0.000323713 0)
(1.08031 0.000361202 0)
(1.07981 0.000408058 0)
(1.07924 0.000466355 0)
(1.07858 0.000538821 0)
(1.07783 0.000629139 0)
(1.07694 0.000742412 0)
(1.07589 0.000885937 0)
(1.07463 0.00107049 0)
(1.0731 0.00131255 0)
(1.07122 0.00163819 0)
(1.06886 0.00209014 0)
(1.06585 0.00274089 0)
(1.06191 0.00371771 0)
(1.05664 0.00525092 0)
(1.04939 0.00776593 0)
(1.03916 0.0120653 0)
(1.02466 0.019691 0)
(1.00565 0.0329837 0)
(0.983132 0.0510636 0)
(0.955201 0.0624271 0)
(0.916644 0.0673581 0)
(0.874397 0.0782017 0)
(0.821452 0.0816302 0)
(0.764411 0.0739591 0)
(0.699855 0.0653154 0)
(0.631231 0.0568687 0)
(0.559641 0.0480774 0)
(0.484807 0.0388485 0)
(0.404162 0.0308514 0)
(0.339056 0.0222407 1.30807e-18)
(0.302293 0.0293439 0)
(0.258015 0.0243049 -2.64302e-18)
(0.212209 0.0185353 0)
(0.166078 0.0130763 0)
(0.119289 0.00807341 0)
(0.0719186 0.00374318 9.8606e-19)
(0.0327143 -0.00202723 0)
(0 0 0)
(0 0 0)
(0 0 0)
(0 0 0)
(0 0 0)
(0 0 0)
(0 0 0)
(0 0 0)
(0 0 0)
(0 0 0)
(0 0 0)
(0 0 0)
(0 0 0)
(0 0 0)
(0 0 0)
(0 0 0)
(0 0 0)
(0 0 0)
(0 0 0)
(0 0 0)
(0 0 0)
(0 0 0)
(0 0 0)
(0 0 0)
(0 0 0)
(0 0 0)
(0 0 0)
(0 0 0)
(0 0 0)
(0 0 0)
(0 0 0)
(0 0 0)
(0 0 0)
(0 0 0)
(0 0 0)
(0 0 0)
(0 0 0)
(0 0 0)
(0 0 0)
(0 0 0)
(0 0 0)
(0 0 0)
(0 0 0)
(0 0 0)
(0 0 0)
(0 0 0)
(0 0 0)
(0 0 0)
(0 0 0)
(0 0 0)
(0 0 0)
(0 0 0)
(0 0 0)
(0 0 0)
(0 0 0)
(0 0 0)
(0 0 0)
(0 0 0)
(0 0 0)
(0 0 0)
(0 0 0)
(8.21571e-05 0.00233509 0)
(-0.00526127 0.0155023 0)
(-0.031262 0.0390295 0)
(-0.0724466 0.0592083 0)
(-0.125175 0.0736996 0)
(-0.18542 0.0823167 0)
(-0.249361 0.0857691 0)
(-0.313726 0.0850478 0)
(-0.375879 0.0811305 0)
(-0.433801 0.0748661 0)
(-0.486008 0.0669433 0)
(-0.531458 0.0578981 0)
(-0.569459 0.0481375 0)
(-0.599591 0.0379653 0)
(-0.621637 0.0276079 0)
(-0.635539 0.0172346 0)
(-0.641355 0.00697434 0)
(-0.639246 -0.00307132 0)
(-0.629427 -0.0128159 0)
(-0.61221 -0.0221736 0)
(-0.58797 -0.0310617 0)
(-0.557131 -0.0394113 0)
(-0.520157 -0.047168 0)
(-0.477542 -0.0542923 0)
(-0.4298 -0.0607567 0)
(-0.377452 -0.0665466 0)
(-0.321025 -0.071654 0)
(-0.261046 -0.0760794 0)
(-0.19803 -0.0798388 0)
(-0.13248 -0.0829532 0)
(-0.0648823 -0.0854434 0)
(0.00431062 -0.0873184 0)
(0.0745603 -0.0885718 0)
(0.145393 -0.0892302 0)
(0.21644 -0.0893563 0)
(0.287335 -0.08901 0)
(0.357744 -0.0882402 0)
(0.427365 -0.08709 0)
(0.495923 -0.0855952 0)
(0.563171 -0.0837822 0)
(0.6289 -0.0816839 0)
(0.692928 -0.0793481 0)
(0.755095 -0.076825 0)
(0.815261 -0.0741574 0)
(0.873315 -0.0713771 0)
(0.929174 -0.0685113 0)
(0.982768 -0.0655819 0)
(1.03405 -0.0625998 0)
(1.08298 -0.0595767 0)
(1.12956 -0.0565374 0)
(1.17379 -0.0535085 0)
(1.21567 -0.0505101 0)
(1.25524 -0.0475569 0)
(1.29251 -0.0446615 0)
(1.32755 -0.0418347 0)
(1.36041 -0.0390859 0)
(1.39113 -0.0364227 0)
(1.4198 -0.0338515 0)
(1.44648 -0.0313773 0)
(1.47124 -0.0290038 0)
(1.49416 -0.0267337 0)
(1.51532 -0.0245687 0)
(1.5348 -0.0225097 0)
(1.55267 -0.0205567 0)
(1.56903 -0.0187089 0)
(1.58394 -0.0169651 0)
(1.5975 -0.0153235 0)
(1.60977 -0.0137817 0)
(1.62083 -0.0123372 0)
(1.63076 -0.010987 0)
(1.63963 -0.00972791 0)
(1.64751 -0.00855664 0)
(1.65447 -0.00746966 0)
(1.66056 -0.00646335 0)
(1.66587 -0.00553406 0)
(1.67043 -0.0046781 0)
(1.67431 -0.0038918 0)
(1.67757 -0.00317155 0)
(1.68026 -0.00251383 0)
(1.68241 -0.00191523 0)
(1.68409 -0.0013725 0)
(1.68533 -0.000882503 0)
(1.68618 -0.000442205 0)
(1.68666 -4.82334e-05 0)
(1.68683 0.00030462 0)
(1.68671 0.000621353 0)
(1.68634 0.000904041 0)
(1.68573 0.00115389 0)
(1.68492 0.00137273 0)
(1.68393 0.00156267 0)
(1.68278 0.00172591 0)
(1.68149 0.0018646 0)
(1.68009 0.00198085 0)
(1.67859 0.00207666 0)
(1.677 0.00215393 0)
(1.67535 0.0022144 0)
(1.67364 0.00225972 0)
(1.67189 0.00229137 0)
(1.67011 0.00231076 0)
(1.66831 0.00231915 0)
(1.6665 0.00231773 0)
(1.66468 0.00230757 0)
(1.66287 0.00228967 0)
(1.66106 0.00226494 0)
(1.65927 0.00223421 0)
(1.6575 0.00219823 0)
(1.65576 0.00215769 0)
(1.65405 0.00211323 0)
(1.65236 0.00206542 0)
(1.65072 0.00201481 0)
(1.64911 0.00196189 0)
(1.64754 0.0019071 0)
(1.64601 0.00185086 0)
(1.64453 0.00179351 0)
(1.64308 0.00173539 0)
(1.64169 0.00167679 0)
(1.64034 0.00161798 0)
(1.63903 0.00155922 0)
(1.63777 0.00150073 0)
(1.63656 0.00144271 0)
(1.63539 0.00138535 0)
(1.63427 0.00132881 0)
(1.63319 0.00127323 0)
(1.63215 0.00121876 0)
(1.63116 0.00116551 0)
(1.63021 0.0011136 0)
(1.6293 0.00106312 0)
(1.62843 0.00101416 0)
(1.6276 0.000966828 0)
(1.62681 0.000921201 0)
(1.62605 0.000877374 0)
(1.62533 0.000835444 0)
(1.62464 0.000795512 0)
(1.62399 0.000757686 0)
(1.62336 0.000722083 0)
(1.62277 0.000688834 0)
(1.62219 0.000658092 0)
(1.62165 0.00063003 0)
(1.62112 0.000604856 0)
(1.62062 0.000582816 0)
(1.62013 0.000564204 0)
(1.61966 0.000549369 0)
(1.6192 0.000538729 0)
(1.61875 0.000532785 0)
(1.6183 0.000532133 0)
(1.61785 0.000537492 0)
(1.6174 0.00054973 0)
(1.61693 0.000569895 0)
(1.61645 0.000599259 0)
(1.61594 0.000639374 0)
(1.61539 0.000692144 0)
(1.6148 0.000759933 0)
(1.61415 0.000845698 0)
(1.61342 0.000953193 0)
(1.6126 0.00108725 0)
(1.61167 0.00125423 0)
(1.61059 0.00146264 0)
(1.60932 0.0017242 0)
(1.60783 0.00205541 0)
(1.60604 0.0024802 0)
(1.60389 0.00303418 0)
(1.60125 0.00377175 0)
(1.59798 0.00477803 0)
(1.59388 0.00618911 0)
(1.58864 0.00822614 0)
(1.58187 0.0112512 0)
(1.57305 0.0158506 0)
(1.56156 0.0229409 0)
(1.5469 0.0338455 0)
(1.52957 0.0497883 0)
(1.51091 0.0691117 0)
(1.48971 0.0852995 0)
(1.4624 0.0976834 0)
(1.43104 0.111677 0)
(1.39523 0.120115 0)
(1.35424 0.120295 0)
(1.30633 0.117784 0)
(1.2534 0.114331 0)
(1.19652 0.109994 0)
(1.13556 0.10463 0)
(1.06927 0.0993667 0)
(1.00076 0.0983788 0)
(0.932559 0.093257 0)
(0.85811 0.0835361 0)
(0.779903 0.0735621 0)
(0.69913 0.0633792 0)
(0.616113 0.0527883 0)
(0.530258 0.0416338 0)
(0.440232 0.0317691 0)
(0.370277 0.0366229 0)
(0.329145 0.032991 0)
(0.278403 0.02603 0)
(0.227335 0.0196055 0)
(0.176027 0.0136038 0)
(0.124098 0.0081616 0)
(0.0717414 0.00352071 -8.00767e-19)
(0.0356582 -0.00160774 0)
(0 0 0)
(0 0 0)
(0 0 0)
(0 0 0)
(0 0 0)
(0 0 0)
(0 0 0)
(0 0 0)
(0 0 0)
(0 0 0)
(0 0 0)
(0 0 0)
(0 0 0)
(0 0 0)
(0 0 0)
(0 0 0)
(0 0 0)
(0 0 0)
(0 0 0)
(0 0 0)
(0 0 0)
(0 0 0)
(0 0 0)
(0 0 0)
(0 0 0)
(0 0 0)
(0 0 0)
(0 0 0)
(0 0 0)
(0 0 0)
(0 0 0)
(0 0 0)
(0 0 0)
(0 0 0)
(0 0 0)
(0 0 0)
(0 0 0)
(0 0 0)
(0 0 0)
(0 0 0)
(0 0 0)
(0 0 0)
(0 0 0)
(0 0 0)
(0 0 0)
(0 0 0)
(0 0 0)
(0 0 0)
(0 0 0)
(0 0 0)
(0 0 0)
(0 0 0)
(0 0 0)
(-0.00084234 0.00654853 0)
(-0.00786266 0.032215 0)
(-0.0426659 0.0710666 0)
(-0.0952563 0.103188 0)
(-0.160499 0.125994 0)
(-0.233652 0.139395 0)
(-0.310338 0.144472 0)
(-0.386813 0.142734 0)
(-0.460053 0.135707 0)
(-0.527724 0.124749 0)
(-0.5881 0.110984 0)
(-0.639964 0.0953071 0)
(-0.682512 0.0784071 0)
(-0.715261 0.0608077 0)
(-0.737977 0.0429031 0)
(-0.750618 0.0249914 0)
(-0.753285 0.00729958 0)
(-0.746204 -0.00999378 0)
(-0.729684 -0.0267242 0)
(-0.704165 -0.042736 0)
(-0.670151 -0.0578946 0)
(-0.628197 -0.0720924 0)
(-0.5789 -0.0852463 0)
(-0.522883 -0.0972971 0)
(-0.460787 -0.108205 0)
(-0.393255 -0.117953 0)
(-0.320929 -0.126532 0)
(-0.244451 -0.133948 0)
(-0.164443 -0.140237 0)
(-0.081508 -0.145432 0)
(0.00379005 -0.149543 0)