/*--------------------------------*- C++ -*----------------------------------*\
| =========                 |                                                 |
| \\      /  F ield         | OpenFOAM: The Open Source CFD Toolbox           |
|  \\    /   O peration     | Version:  2206                                  |
|   \\  /    A nd           | Website:  www.openfoam.com                      |
|    \\/     M anipulation  |                                                 |
\*---------------------------------------------------------------------------*/
FoamFile
{
    version     2.0;
    format      ascii;
    arch        "LSB;label=32;scalar=64";
    class       volScalarField;
    location    "0.2";
    object      epsilon;
}
// * * * * * * * * * * * * * * * * * * * * * * * * * * * * * * * * * * * * * //

dimensions      [0 2 -3 0 0 0 0];

internalField   nonuniform List<scalar> 
1875
(
0.00030293
0.00056333
0.00100009
0.00133876
0.0014446
0.00143159
0.00137718
0.00131945
0.00127182
0.00123599
0.00120959
0.00118965
0.00117369
0.00115977
0.00114649
0.00113277
0.00111764
0.00110022
0.00107968
0.00105526
0.00102634
0.00099262
0.000954319
0.0009125
0.000869189
0.00082725
0.000790013
0.000760727
0.000741866
0.000734603
0.000738988
0.000754271
0.000779164
0.000811662
0.00084925
0.000889446
0.00092977
0.000968166
0.00100322
0.00103409
0.00106047
0.00108243
0.00110032
0.00111463
0.00112589
0.00113465
0.00114139
0.00114653
0.00115043
0.00115336
0.00115555
0.00115719
0.00115842
0.00115933
0.00116001
0.00116051
0.00116088
0.00116115
0.00116135
0.0011615
0.00116161
0.00116169
0.00116175
0.00116179
0.00116182
0.00116185
0.00116186
0.00116188
0.00116189
0.00116189
0.0011619
0.00116191
0.00116196
0.00116211
0.00116249
0.000219201
0.000269538
0.000362871
0.000461414
0.000531321
0.000565726
0.00057475
0.000571328
0.000563299
0.000554503
0.000546427
0.000539432
0.000533407
0.00052808
0.000523107
0.000518142
0.00051286
0.000506936
0.000500051
0.00049189
0.000482162
0.000470614
0.000457088
0.000441661
0.000424777
0.000407332
0.000390575
0.000375979
0.000364954
0.00035845
0.000356768
0.000359775
0.000367061
0.000377879
0.000391267
0.000406205
0.000421715
0.000436972
0.000451345
0.000464405
0.00047591
0.00048579
0.000494077
0.000500887
0.000506384
0.000510765
0.000514214
0.000516912
0.000519005
0.000520617
0.000521852
0.000522793
0.00052351
0.000524055
0.000524469
0.000524782
0.00052502
0.000525199
0.000525334
0.000525436
0.000525513
0.00052557
0.000525614
0.000525647
0.000525671
0.00052569
0.000525703
0.000525714
0.000525722
0.000525728
0.000525733
0.000525742
0.00052578
0.000525988
0.000527112
0.000195473
0.000198095
0.000211279
0.000229124
0.00024359
0.000251357
0.000253445
0.000252483
0.000250377
0.000247931
0.000245603
0.000243566
0.000241854
0.000240418
0.000239182
0.00023807
0.000237011
0.000235929
0.00023475
0.000233392
0.000231758
0.000229719
0.000227105
0.000223737
0.0002195
0.000214472
0.000208953
0.000203464
0.000198669
0.000195177
0.000193358
0.000193171
0.000194452
0.000196951
0.000200345
0.000204274
0.000208411
0.000212509
0.000216394
0.000219957
0.000223135
0.0002259
0.000228255
0.000230229
0.000231863
0.000233192
0.000234258
0.000235104
0.000235769
0.000236289
0.000236693
0.000237005
0.000237245
0.000237429
0.00023757
0.000237677
0.000237758
0.00023782
0.000237867
0.000237903
0.00023793
0.00023795
0.000237965
0.000237977
0.000237986
0.000237992
0.000237997
0.000238001
0.000238004
0.000238006
0.000238008
0.000238011
0.000238029
0.000238132
0.000238733
0.000188496
0.000179095
0.000173723
0.000171188
0.00016977
0.000168257
0.00016624
0.000163988
0.000161894
0.000160189
0.000158908
0.00015799
0.000157355
0.000156927
0.000156647
0.000156479
0.0001564
0.000156402
0.000156477
0.000156613
0.000156777
0.000156919
0.000156916
0.00015657
0.000155672
0.000154148
0.000152123
0.000149891
0.000147857
0.000146347
0.000145417
0.000144989
0.000145049
0.000145666
0.000146781
0.000148146
0.000149509
0.000150713
0.000151705
0.000152494
0.000153116
0.000153605
0.000153988
0.000154295
0.000154546
0.000154755
0.000154929
0.000155073
0.000155192
0.000155289
0.000155369
0.000155433
0.000155484
0.000155524
0.000155556
0.00015558
0.000155598
0.000155613
0.000155624
0.000155633
0.000155639
0.000155644
0.000155648
0.000155651
0.000155653
0.000155654
0.000155656
0.000155656
0.000155657
0.000155658
0.000155658
0.000155659
0.000155664
0.000155695
0.000155882
0.000186548
0.000173707
0.000164007
0.000156844
0.00015158
0.000147632
0.00014457
0.000142229
0.000140498
0.00013925
0.000138387
0.000137811
0.00013744
0.000137218
0.000137104
0.000137072
0.000137112
0.000137224
0.000137415
0.000137693
0.000138034
0.000138346
0.000138409
0.000137899
0.000136543
0.000134372
0.000131926
0.000129833
0.0001288
0.000128921
0.000129185
0.00012871
0.000127889
0.000127902
0.00012923
0.000131237
0.000133247
0.00013486
0.000135955
0.000136589
0.000136886
0.000136972
0.000136948
0.00013688
0.000136806
0.000136741
0.00013669
0.000136653
0.000136627
0.000136611
0.000136601
0.000136595
0.000136592
0.000136591
0.000136591
0.000136591
0.000136592
0.000136593
0.000136593
0.000136594
0.000136594
0.000136595
0.000136595
0.000136595
0.000136595
0.000136595
0.000136595
0.000136596
0.000136596
0.000136596
0.000136596
0.000136596
0.000136596
0.000136598
0.000136614
0.000185953
0.000172107
0.00016122
0.000152957
0.000146868
0.000142477
0.000139347
0.000137136
0.000135607
0.000134573
0.000133891
0.000133461
0.000133197
0.000133047
0.000132975
0.000132964
0.000133007
0.000133108
0.000133276
0.000133495
0.000133659
0.000133455
0.000132286
0.000129468
0.000124597
0.00011801
0.000111429
0.000105735
0.00010317
0.000106442
0.000111374
0.000110847
0.000105689
0.00010356
0.000108166
0.000114807
0.000121159
0.000126086
0.000129441
0.000131483
0.000132587
0.000133085
0.00013324
0.000133225
0.000133145
0.00013305
0.000132965
0.000132896
0.000132844
0.000132806
0.000132778
0.000132758
0.000132745
0.000132735
0.000132728
0.000132723
0.00013272
0.000132717
0.000132715
0.000132714
0.000132713
0.000132712
0.000132712
0.000132712
0.000132711
0.000132711
0.000132711
0.000132711
0.000132711
0.000132711
0.000132711
0.00013271
0.000132709
0.000132703
0.000132667
0.000185729
0.000171538
0.000160269
0.000151688
0.000145404
0.000140954
0.000137882
0.000135799
0.000134409
0.000133499
0.000132917
0.000132555
0.000132337
0.000132216
0.000132162
0.000132159
0.000132204
0.000132299
0.000132431
0.000132502
0.000132161
0.000130601
0.00012658
0.000118878
0.000107193
9.14531e-05
7.51535e-05
5.60536e-05
4.11601e-05
6.87468e-05
0.000107297
0.000108227
7.03558e-05
4.23149e-05
6.36966e-05
8.13905e-05
9.87118e-05
0.000112322
0.000121158
0.000126537
0.000129598
0.000131206
0.000131962
0.000132257
0.000132326
0.000132299
0.000132241
0.000132182
0.000132131
0.000132091
0.000132061
0.00013204
0.000132024
0.000132013
0.000132005
0.000131999
0.000131995
0.000131992
0.00013199
0.000131989
0.000131987
0.000131986
0.000131986
0.000131985
0.000131985
0.000131985
0.000131984
0.000131984
0.000131984
0.000131984
0.000131984
0.000131984
0.000131982
0.000131974
0.000131925
0.000185627
0.000171288
0.000159865
0.000151165
0.000144821
0.00014037
0.000137345
0.000135338
0.000134031
0.000133195
0.00013267
0.00013235
0.00013216
0.000132057
0.000132015
0.000132019
0.000132067
0.000132149
0.000132194
0.000131909
0.000130494
0.000126541
0.000118523
0.000105121
8.7346e-05
6.48223e-05
3.17019e-05
8.19324e-05
0.0002
0.0002
0.0002
0.0002
0.0002
0.0002
8.04969e-05
3.10233e-05
6.71483e-05
9.27025e-05
0.000109763
0.000119943
0.00012585
0.000129111
0.000130801
0.000131605
0.000131942
0.000132051
0.000132059
0.000132031
0.000131994
0.00013196
0.000131933
0.000131912
0.000131897
0.000131886
0.000131878
0.000131872
0.000131868
0.000131865
0.000131863
0.000131861
0.00013186
0.000131859
0.000131858
0.000131858
0.000131858
0.000131857
0.000131857
0.000131857
0.000131857
0.000131857
0.000131857
0.000131856
0.000131855
0.000131846
0.000131794
0.000185575
0.00017116
0.000159658
0.000150902
0.000144532
0.000140086
0.000137089
0.000135125
0.000133865
0.000133073
0.000132585
0.000132291
0.00013212
0.00013203
0.000131996
0.000132007
0.000132052
0.000132095
0.000131951
0.000131002
0.000127862
0.000120864
0.000109332
9.19189e-05
6.68598e-05
2.84912e-05
0.000109966
0.0002
0.0002
0.0002
0.0002
0.0002
0.0002
0.0002
0.0002
9.4107e-05
2.7244e-05
7.15222e-05
9.73437e-05
0.000112664
0.000121624
0.000126713
0.000129473
0.000130886
0.000131558
0.000131845
0.000131945
0.000131963
0.000131949
0.000131927
0.000131905
0.000131887
0.000131873
0.000131863
0.000131856
0.00013185
0.000131846
0.000131843
0.000131841
0.00013184
0.000131839
0.000131838
0.000131837
0.000131837
0.000131836
0.000131836
0.000131836
0.000131836
0.000131836
0.000131836
0.000131835
0.000131835
0.000131834
0.000131824
0.000131773
0.000185545
0.000171088
0.000159542
0.000150751
0.000144367
0.000139925
0.000136945
0.000135006
0.000133775
0.00013301
0.000132544
0.000132268
0.00013211
0.00013203
0.000132002
0.000132015
0.00013205
0.000132021
0.00013159
0.000129775
0.000124753
0.00011503
0.000100862
8.11878e-05
5.60438e-05
6.19562e-05
0.0002
0.0002
0.0002
0.0002
0.0002
0.0002
0.0002
0.0002
0.0002
0.0002
5.83914e-05
7.09408e-05
9.09609e-05
0.000107124
0.000117874
0.000124414
0.00012814
0.000130141
0.000131152
0.000131627
0.000131828
0.000131899
0.000131913
0.000131905
0.000131891
0.000131877
0.000131865
0.000131856
0.00013185
0.000131845
0.000131842
0.000131839
0.000131837
0.000131836
0.000131835
0.000131834
0.000131834
0.000131833
0.000131833
0.000131833
0.000131832
0.000131832
0.000131832
0.000131832
0.000131832
0.000131832
0.00013183
0.000131821
0.000131769
0.000185528
0.000171047
0.000159474
0.000150663
0.000144269
0.000139829
0.00013686
0.000134936
0.000133722
0.000132973
0.000132522
0.000132257
0.000132108
0.000132034
0.000132011
0.000132024
0.000132044
0.000131937
0.000131219
0.000128631
0.00012225
0.00011104
9.51354e-05
7.31453e-05
7.14943e-05
0.000138039
0.0002
0.0002
0.0002
0.0002
0.0002
0.0002
0.0002
0.0002
0.0002
0.0002
0.000112068
8.77746e-05
9.41553e-05
0.000106554
0.000116502
0.000123215
0.000127305
0.000129616
0.000130839
0.000131446
0.000131725
0.00013184
0.000131878
0.000131883
0.000131876
0.000131867
0.000131858
0.000131851
0.000131846
0.000131842
0.000131839
0.000131837
0.000131836
0.000131835
0.000131834
0.000131833
0.000131833
0.000131832
0.000131832
0.000131832
0.000131832
0.000131832
0.000131832
0.000131832
0.000131831
0.000131831
0.00013183
0.000131821
0.000131769
0.00018552
0.000171025
0.000159438
0.000150615
0.000144216
0.000139777
0.000136814
0.000134898
0.000133694
0.000132955
0.000132512
0.000132253
0.00013211
0.000132039
0.000132019
0.000132034
0.000132053
0.000131943
0.000131217
0.000128606
0.00012198
0.000110483
9.73486e-05
7.81277e-05
4.04984e-05
0.0002
0.0002
0.0002
0.0002
0.0002
0.0002
0.0002
0.0002
0.0002
0.0002
0.0002
0.0002
3.57406e-05
7.5714e-05
9.97549e-05
0.000113766
0.000121994
0.000126701
0.000129289
0.000130651
0.000131333
0.000131656
0.000131796
0.000131849
0.000131864
0.000131864
0.000131858
0.000131852
0.000131846
0.000131842
0.000131839
0.000131837
0.000131836
0.000131834
0.000131834
0.000131833
0.000131833
0.000131832
0.000131832
0.000131832
0.000131832
0.000131832
0.000131832
0.000131831
0.000131831
0.000131831
0.000131831
0.00013183
0.00013182
0.000131768
0.000185517
0.000171018
0.000159427
0.000150601
0.000144201
0.000139764
0.000136805
0.000134895
0.000133695
0.00013296
0.000132519
0.000132263
0.00013212
0.000132051
0.000132031
0.000132048
0.000132076
0.000132004
0.000131421
0.000129147
0.000122812
0.000111986
0.000103244
8.44673e-05
4.38269e-05
0.0002
0.0002
0.0002
0.0002
0.0002
0.0002
0.0002
0.0002
0.0002
0.0002
0.0002
0.0002
3.8912e-05
7.72274e-05
0.000100643
0.000114261
0.000122235
0.000126793
0.000129307
0.000130638
0.000131311
0.000131633
0.000131777
0.000131835
0.000131853
0.000131855
0.000131852
0.000131847
0.000131843
0.00013184
0.000131837
0.000131836
0.000131834
0.000131834
0.000131833
0.000131833
0.000131832
0.000131832
0.000131832
0.000131832
0.000131832
0.000131832
0.000131831
0.000131831
0.000131831
0.000131831
0.000131831
0.00013183
0.00013182
0.000131768
0.000185519
0.000171025
0.000159438
0.000150618
0.000144224
0.000139792
0.000136837
0.000134928
0.000133728
0.000132991
0.000132547
0.000132287
0.000132142
0.000132069
0.000132048
0.000132062
0.000132084
0.000131979
0.000131265
0.000128645
0.000121964
0.000110525
9.74708e-05
7.80142e-05
4.05362e-05
0.0002
0.0002
0.0002
0.0002
0.0002
0.0002
0.0002
0.0002
0.0002
0.0002
0.0002
0.0002
3.57484e-05
7.59771e-05
9.95646e-05
0.000113571
0.000121842
0.000126584
0.000129199
0.000130582
0.00013128
0.000131616
0.000131767
0.000131828
0.000131848
0.000131852
0.000131849
0.000131845
0.000131842
0.000131839
0.000131837
0.000131835
0.000131834
0.000131833
0.000131833
0.000131832
0.000131832
0.000131832
0.000131832
0.000131832
0.000131832
0.000131831
0.000131831
0.000131831
0.000131831
0.000131831
0.000131831
0.00013183
0.00013182
0.000131768
0.000185528
0.000171046
0.000159475
0.000150668
0.000144285
0.000139859
0.000136904
0.000134992
0.000133785
0.000133039
0.000132587
0.000132319
0.000132167
0.000132089
0.000132063
0.000132076
0.000132096
0.000131992
0.000131276
0.000128703
0.000122383
0.000111328
9.55423e-05
7.34703e-05
7.16372e-05
0.000138039
0.0002
0.0002
0.0002
0.0002
0.0002
0.0002
0.0002
0.0002
0.0002
0.0002
0.000112146
8.7978e-05
9.4619e-05
0.000106462
0.000116234
0.000122904
0.000127018
0.00012938
0.000130658
0.000131313
0.000131629
0.000131772
0.000131829
0.000131849
0.000131852
0.000131849
0.000131845
0.000131842
0.000131839
0.000131836
0.000131835
0.000131834
0.000131833
0.000131833
0.000131832
0.000131832
0.000131832
0.000131832
0.000131832
0.000131832
0.000131831
0.000131831
0.000131831
0.000131831
0.000131831
0.000131831
0.00013183
0.00013182
0.000131768
0.000185545
0.000171087
0.000159543
0.000150759
0.00014439
0.000139967
0.000137009
0.000135086
0.000133865
0.000133103
0.000132635
0.000132354
0.000132191
0.000132105
0.000132074
0.000132085
0.00013212
0.000132091
0.000131657
0.000129866
0.000124978
0.000115515
0.000101576
8.20753e-05
5.65834e-05
6.20653e-05
0.0002
0.0002
0.0002
0.0002
0.0002
0.0002
0.0002
0.0002
0.0002
0.0002
5.84844e-05
7.09878e-05
9.1477e-05
0.000107092
0.000117474
0.000123898
0.000127656
0.000129748
0.000130857
0.000131415
0.000131679
0.000131795
0.00013184
0.000131853
0.000131854
0.00013185
0.000131845
0.000131842
0.000131839
0.000131837
0.000131835
0.000131834
0.000131833
0.000131833
0.000131832
0.000131832
0.000131832
0.000131832
0.000131832
0.000131832
0.000131832
0.000131832
0.000131832
0.000131832
0.000131831
0.000131831
0.00013183
0.000131821
0.000131769
0.000185574
0.000171159
0.00015966
0.000150912
0.00014456
0.000140139
0.000137168
0.000135224
0.000133976
0.000133187
0.000132696
0.000132395
0.000132216
0.000132119
0.00013208
0.000132088
0.000132135
0.00013218
0.000132034
0.000131093
0.000128047
0.00012135
0.000110247
9.30184e-05
6.78141e-05
2.85709e-05
0.000109966
0.0002
0.0002
0.0002
0.0002
0.0002
0.0002
0.0002
0.0002
9.43671e-05
2.72859e-05
7.13873e-05
9.69464e-05
0.000111831
0.000120667
0.000125837
0.000128763
0.000130352
0.000131174
0.000131576
0.000131759
0.000131834
0.000131859
0.000131862
0.000131858
0.000131852
0.000131847
0.000131843
0.00013184
0.000131838
0.000131836
0.000131835
0.000131834
0.000131834
0.000131834
0.000131833
0.000131833
0.000131833
0.000131833
0.000131833
0.000131833
0.000131833
0.000131833
0.000131833
0.000131833
0.000131832
0.000131831
0.000131822
0.00013177
0.000185627
0.000171287
0.000159865
0.000151175
0.000144849
0.000140424
0.000137426
0.00013544
0.000134145
0.000133311
0.000132782
0.000132453
0.000132254
0.000132142
0.000132093
0.000132095
0.000132145
0.000132231
0.000132277
0.000131992
0.00013062
0.00012688
0.000119268
0.000106253
8.88154e-05
6.61622e-05
3.1757e-05
8.20273e-05
0.0002
0.0002
0.0002
0.0002
0.0002
0.0002
8.08558e-05
3.11115e-05
6.68087e-05
9.21469e-05
0.000108385
0.000118461
0.000124527
0.000128042
0.000129991
0.000131017
0.000131526
0.000131759
0.000131854
0.000131884
0.000131887
0.00013188
0.000131871
0.000131863
0.000131857
0.000131852
0.000131849
0.000131847
0.000131846
0.000131845
0.000131844
0.000131843
0.000131843
0.000131843
0.000131843
0.000131843
0.000131843
0.000131842
0.000131842
0.000131842
0.000131842
0.000131842
0.000131842
0.000131842
0.00013184
0.000131831
0.000131779
0.00018573
0.000171537
0.000160266
0.000151684
0.000145403
0.000140963
0.000137906
0.000135836
0.000134454
0.000133546
0.000132959
0.000132589
0.000132363
0.000132235
0.000132175
0.00013217
0.000132217
0.000132317
0.000132456
0.000132529
0.000132198
0.000130719
0.00012693
0.000119655
0.000108502
9.31137e-05
7.68458e-05
5.68073e-05
4.11967e-05
6.89695e-05
0.000107756
0.000108764
7.07219e-05
4.25287e-05
6.34446e-05
8.09067e-05
9.78119e-05
0.000110583
0.000119267
0.00012483
0.000128196
0.000130123
0.000131156
0.000131667
0.000131896
0.00013198
0.000131999
0.00013199
0.000131974
0.000131958
0.000131945
0.000131935
0.000131928
0.000131923
0.000131919
0.000131917
0.000131915
0.000131914
0.000131914
0.000131913
0.000131913
0.000131913
0.000131912
0.000131912
0.000131912
0.000131912
0.000131912
0.000131912
0.000131912
0.000131912
0.000131912
0.000131912
0.00013191
0.000131901
0.000131849
0.000185956
0.000172109
0.000161201
0.000152887
0.000146727
0.000142265
0.000139084
0.000136849
0.000135313
0.00013428
0.000133602
0.000133175
0.000132914
0.000132765
0.000132695
0.000132687
0.000132735
0.000132845
0.000133021
0.000133247
0.000133415
0.000133228
0.000132149
0.000129564
0.000125054
0.000118899
0.000112701
0.0001071
0.00010455
0.000107255
0.000111938
0.000111232
0.000105846
0.000103418
0.000107643
0.000113554
0.000119355
0.000124098
0.000127568
0.000129869
0.000131265
0.000132029
0.000132398
0.000132544
0.000132576
0.000132558
0.000132524
0.00013249
0.000132461
0.000132438
0.000132422
0.00013241
0.000132402
0.000132397
0.000132393
0.00013239
0.000132389
0.000132388
0.000132387
0.000132386
0.000132386
0.000132386
0.000132386
0.000132386
0.000132385
0.000132385
0.000132385
0.000132385
0.000132385
0.000132385
0.000132385
0.000132385
0.000132383
0.000132374
0.000132323
0.000186562
0.000173726
0.000163934
0.000156527
0.000150906
0.000146596
0.000143264
0.000140774
0.000138994
0.000137755
0.000136928
0.000136394
0.000136062
0.000135872
0.000135785
0.000135777
0.000135837
0.000135967
0.000136175
0.000136468
0.00013682
0.000137146
0.000137246
0.000136835
0.000135656
0.000133719
0.000131497
0.000129501
0.000128412
0.000128338
0.000128496
0.000128067
0.000127257
0.000127052
0.000127976
0.000129586
0.000131355
0.000132914
0.000134085
0.000134856
0.000135297
0.000135505
0.000135571
0.000135563
0.000135525
0.000135479
0.000135437
0.000135402
0.000135377
0.000135359
0.000135347
0.000135339
0.000135334
0.000135331
0.00013533
0.00013533
0.000135329
0.000135329
0.00013533
0.00013533
0.00013533
0.00013533
0.00013533
0.000135331
0.000135331
0.000135331
0.000135331
0.000135331
0.000135331
0.000135331
0.000135331
0.000135331
0.000135329
0.00013532
0.00013527
0.000188552
0.000179182
0.000173491
0.00017008
0.000167436
0.000164752
0.000161921
0.000159258
0.000157052
0.000155399
0.000154243
0.000153467
0.000152962
0.000152646
0.000152459
0.000152367
0.000152355
0.000152413
0.000152543
0.000152731
0.000152949
0.000153151
0.000153225
0.000152989
0.000152249
0.000150929
0.000149128
0.000147105
0.000145246
0.000143888
0.000143109
0.000142807
0.000142899
0.000143414
0.000144329
0.000145477
0.000146663
0.000147744
0.00014865
0.000149367
0.000149916
0.000150325
0.000150622
0.000150841
0.000151008
0.00015114
0.000151246
0.000151333
0.000151404
0.000151463
0.000151513
0.000151553
0.000151586
0.000151611
0.000151632
0.000151647
0.00015166
0.000151669
0.000151677
0.000151683
0.000151687
0.000151691
0.000151693
0.000151695
0.000151697
0.000151698
0.000151699
0.000151699
0.0001517
0.0001517
0.0001517
0.0001517
0.000151699
0.000151692
0.000151649
0.000195654
0.000198393
0.000210637
0.000225952
0.000237233
0.00024231
0.000242832
0.000241278
0.000239183
0.000237032
0.00023508
0.000233404
0.000232001
0.000230818
0.000229788
0.000228847
0.000227935
0.000226989
0.000225942
0.000224724
0.000223245
0.000221387
0.000218991
0.000215892
0.000211987
0.000207354
0.000202279
0.000197255
0.000192911
0.000189826
0.000188339
0.000188375
0.000189743
0.000192195
0.000195428
0.000199118
0.000202967
0.000206745
0.000210291
0.000213506
0.000216336
0.000218768
0.000220814
0.000222509
0.000223901
0.000225025
0.00022592
0.000226627
0.000227182
0.000227615
0.00022795
0.00022821
0.000228409
0.000228563
0.00022868
0.000228769
0.000228837
0.000228889
0.000228929
0.000228958
0.000228981
0.000228998
0.000229011
0.000229021
0.000229029
0.000229034
0.000229039
0.000229042
0.000229044
0.000229046
0.000229047
0.000229049
0.000229049
0.00022905
0.000229051
0.000219591
0.000270154
0.000361245
0.000454262
0.000518615
0.000549616
0.000557533
0.000554375
0.000547168
0.000539281
0.000531998
0.000525627
0.000520075
0.000515104
0.000510405
0.00050566
0.000500566
0.000494819
0.000488113
0.000480147
0.000470642
0.00045936
0.000446158
0.000431127
0.000414718
0.000397818
0.000381655
0.000367659
0.000357192
0.000351154
0.000349807
0.000353002
0.000360328
0.000371046
0.000384211
0.000398823
0.000413929
0.000428728
0.000442614
0.000455182
0.000466214
0.000475654
0.000483548
0.000490017
0.000495226
0.000499371
0.00050263
0.000505176
0.00050715
0.000508671
0.000509836
0.000510725
0.000511401
0.000511916
0.000512308
0.000512605
0.00051283
0.000513
0.000513129
0.000513226
0.000513299
0.000513354
0.000513396
0.000513427
0.00051345
0.000513468
0.000513481
0.000513491
0.000513499
0.000513504
0.000513508
0.000513513
0.000513522
0.000513564
0.00051376
0.00030257
0.000561487
0.000994821
0.00132969
0.00143319
0.00141937
0.00136511
0.00130791
0.00126087
0.00122555
0.00119956
0.00117993
0.0011642
0.00115046
0.00113733
0.00112374
0.00110875
0.00109148
0.0010711
0.00104686
0.00101817
0.000984728
0.000946757
0.000905325
0.000862443
0.000820949
0.000784136
0.000755213
0.000736612
0.000729488
0.000733886
0.000749071
0.000773771
0.000806006
0.000843282
0.000883135
0.000923105
0.00096115
0.000995868
0.00102643
0.00105254
0.00107426
0.00109196
0.0011061
0.00111723
0.00112588
0.00113254
0.00113762
0.00114146
0.00114435
0.00114652
0.00114814
0.00114935
0.00115025
0.00115092
0.00115142
0.00115179
0.00115206
0.00115226
0.00115241
0.00115251
0.00115259
0.00115265
0.00115269
0.00115272
0.00115274
0.00115276
0.00115277
0.00115278
0.00115278
0.00115279
0.00115279
0.00115283
0.001153
0.00115383
)
;

boundaryField
{
    ibCylinder
    {
        type            immersedBoundaryEpsilonWallFunction;
        patchType       immersedBoundary;
        blending        stepwise;
        setDeadValue    true;
        deadValue       0.0002;
        value           nonuniform List<scalar> 0();
    }
    in
    {
        type            fixedValue;
        value           uniform 0.0002;
    }
    out
    {
        type            inletOutlet;
        inletValue      uniform 0.0002;
        value           nonuniform List<scalar> 
25
(
0.00116249
0.000527112
0.000238733
0.000155882
0.000136614
0.000132667
0.000131925
0.000131794
0.000131773
0.000131769
0.000131769
0.000131768
0.000131768
0.000131768
0.000131768
0.000131769
0.00013177
0.000131779
0.000131849
0.000132323
0.00013527
0.000151649
0.000229051
0.00051376
0.00115383
)
;
    }
    top
    {
        type            zeroGradient;
    }
    bottom
    {
        type            zeroGradient;
    }
    frontAndBack
    {
        type            empty;
    }
}


// ************************************************************************* //
