/*--------------------------------*- C++ -*----------------------------------*\
| =========                 |                                                 |
| \\      /  F ield         | OpenFOAM: The Open Source CFD Toolbox           |
|  \\    /   O peration     | Version:  2206                                  |
|   \\  /    A nd           | Website:  www.openfoam.com                      |
|    \\/     M anipulation  |                                                 |
\*---------------------------------------------------------------------------*/
FoamFile
{
    version     2.0;
    format      ascii;
    arch        "LSB;label=32;scalar=64";
    class       volScalarField;
    location    "0.2";
    object      k;
}
// * * * * * * * * * * * * * * * * * * * * * * * * * * * * * * * * * * * * * //

dimensions      [0 2 -2 0 0 0 0];

internalField   nonuniform List<scalar> 
1875
(
0.000199175
0.000306884
0.000466085
0.000583422
0.000623086
0.000622869
0.000607856
0.000590688
0.000576104
0.000564951
0.000556643
0.000550313
0.000545206
0.000540724
0.000536426
0.00053196
0.000527014
0.000521293
0.000514507
0.00050638
0.000496678
0.000485253
0.000472125
0.000457611
0.000442379
0.00042743
0.000413988
0.000403301
0.000396357
0.000393654
0.000395228
0.000400789
0.000409821
0.000421528
0.000434945
0.000449143
0.000463234
0.000476511
0.000488514
0.000498994
0.000507881
0.000515229
0.000521184
0.000525922
0.000529641
0.000532524
0.000534738
0.000536424
0.000537698
0.000538657
0.000539375
0.000539911
0.000540311
0.00054061
0.000540831
0.000540995
0.000541117
0.000541206
0.000541272
0.000541321
0.000541356
0.000541382
0.000541401
0.000541416
0.000541426
0.000541433
0.000541439
0.000541443
0.000541446
0.000541449
0.000541451
0.000541456
0.000541471
0.000541527
0.000541667
0.000160679
0.000183274
0.000221031
0.000259799
0.000288204
0.000303415
0.00030883
0.000309153
0.00030732
0.000304842
0.00030237
0.000300124
0.00029813
0.000296334
0.000294642
0.000292944
0.000291131
0.00028909
0.000286701
0.000283842
0.000280386
0.000276213
0.000271224
0.000265404
0.000258881
0.000251979
0.000245198
0.000239168
0.000234533
0.000231748
0.000230966
0.000232129
0.000235044
0.000239369
0.000244678
0.00025054
0.000256561
0.000262422
0.000267889
0.000272813
0.000277116
0.000280786
0.000283846
0.000286347
0.000288358
0.000289956
0.000291211
0.000292191
0.000292951
0.000293537
0.000293985
0.000294327
0.000294587
0.000294785
0.000294936
0.00029505
0.000295137
0.000295202
0.000295252
0.000295289
0.000295317
0.000295338
0.000295354
0.000295366
0.000295375
0.000295382
0.000295387
0.000295391
0.000295394
0.000295396
0.000295398
0.000295402
0.000295417
0.000295497
0.000295916
0.000149282
0.000151344
0.0001572
0.000164619
0.000170684
0.000174177
0.000175478
0.000175585
0.000175201
0.000174593
0.00017394
0.000173327
0.000172791
0.000172333
0.000171939
0.000171592
0.000171273
0.000170956
0.000170617
0.000170224
0.000169736
0.000169091
0.000168206
0.000166981
0.000165334
0.000163266
0.000160884
0.000158426
0.000156232
0.000154637
0.000153839
0.0001538
0.000154393
0.000155459
0.00015684
0.000158392
0.000160001
0.000161582
0.000163077
0.000164447
0.000165666
0.000166725
0.000167624
0.000168375
0.000168995
0.000169499
0.000169903
0.000170223
0.000170475
0.000170672
0.000170826
0.000170945
0.000171036
0.000171107
0.000171161
0.000171202
0.000171233
0.000171257
0.000171275
0.000171289
0.0001713
0.000171307
0.000171313
0.000171318
0.000171321
0.000171324
0.000171326
0.000171327
0.000171329
0.000171329
0.00017133
0.000171332
0.000171339
0.000171383
0.000171635
0.000145736
0.000142316
0.000140328
0.000139319
0.000138696
0.000138046
0.000137206
0.000136287
0.00013545
0.000134789
0.000134311
0.000133983
0.00013377
0.000133642
0.000133574
0.000133555
0.000133581
0.000133652
0.000133771
0.000133939
0.000134148
0.000134398
0.000134661
0.000134862
0.000134883
0.000134635
0.000134094
0.000133347
0.000132603
0.000132086
0.000131886
0.000131939
0.000132089
0.000132233
0.000132335
0.000132392
0.000132424
0.00013245
0.000132483
0.000132527
0.00013258
0.000132638
0.000132692
0.000132744
0.000132793
0.00013284
0.000132883
0.000132922
0.000132955
0.000132984
0.000133009
0.00013303
0.000133047
0.000133061
0.000133072
0.00013308
0.000133087
0.000133092
0.000133096
0.000133099
0.000133101
0.000133103
0.000133105
0.000133106
0.000133107
0.000133107
0.000133108
0.000133108
0.000133108
0.000133109
0.000133109
0.000133109
0.000133111
0.000133126
0.000133211
0.000144702
0.000139577
0.000135655
0.000132694
0.000130464
0.000128756
0.000127408
0.000126371
0.000125607
0.000125057
0.000124681
0.000124434
0.000124279
0.000124193
0.000124158
0.000124164
0.000124209
0.000124295
0.000124435
0.000124646
0.000124957
0.000125407
0.000126014
0.000126724
0.000127403
0.000127931
0.000128293
0.000128568
0.000128935
0.000129458
0.000129986
0.000130362
0.000130415
0.000130045
0.000129317
0.000128402
0.000127476
0.000126655
0.000125974
0.000125433
0.000125013
0.000124695
0.000124459
0.000124288
0.000124168
0.000124085
0.000124027
0.000123988
0.000123962
0.000123945
0.000123934
0.000123927
0.000123922
0.000123919
0.000123918
0.000123917
0.000123916
0.000123916
0.000123916
0.000123916
0.000123916
0.000123916
0.000123916
0.000123916
0.000123916
0.000123916
0.000123916
0.000123916
0.000123916
0.000123916
0.000123916
0.000123916
0.000123916
0.000123917
0.000123926
0.000144377
0.000138721
0.000134219
0.000130768
0.0001282
0.00012633
0.000124979
0.000124009
0.000123327
0.00012286
0.000122548
0.000122351
0.000122231
0.000122165
0.000122137
0.000122141
0.000122176
0.000122249
0.000122381
0.000122607
0.000122993
0.000123632
0.000124597
0.000125842
0.000127193
0.000128603
0.000130074
0.000131515
0.000132736
0.000133273
0.000133622
0.000134178
0.000134594
0.000134337
0.000133163
0.000131291
0.000129226
0.000127378
0.000125899
0.000124776
0.000123951
0.000123354
0.000122929
0.000122631
0.000122426
0.000122288
0.000122195
0.000122133
0.000122092
0.000122065
0.000122046
0.000122034
0.000122025
0.000122019
0.000122015
0.000122013
0.000122011
0.000122009
0.000122008
0.000122008
0.000122007
0.000122007
0.000122006
0.000122006
0.000122006
0.000122006
0.000122006
0.000122006
0.000122006
0.000122006
0.000122006
0.000122006
0.000122005
0.000122002
0.000121986
0.000144252
0.000138406
0.000133703
0.000130096
0.000127445
0.000125561
0.000124254
0.000123358
0.00012275
0.000122345
0.000122081
0.000121914
0.000121813
0.000121758
0.000121736
0.000121741
0.000121776
0.000121854
0.000122005
0.000122294
0.000122844
0.000123823
0.000125358
0.000127346
0.000129668
0.000132205
0.000134742
0.000136075
0.000135804
0.000134888
0.000134328
0.000134914
0.000136362
0.000137551
0.000137034
0.000135346
0.00013275
0.000130005
0.000127642
0.000125826
0.000124499
0.000123564
0.000122918
0.000122481
0.000122189
0.000121998
0.000121875
0.000121795
0.000121744
0.000121711
0.000121689
0.000121675
0.000121666
0.00012166
0.000121655
0.000121652
0.00012165
0.000121649
0.000121648
0.000121647
0.000121646
0.000121646
0.000121645
0.000121645
0.000121645
0.000121645
0.000121645
0.000121645
0.000121645
0.000121645
0.000121645
0.000121644
0.000121644
0.00012164
0.000121617
0.000144195
0.000138266
0.000133478
0.000129809
0.000127129
0.000125249
0.00012397
0.000123117
0.000122556
0.000122191
0.000121958
0.000121814
0.000121727
0.000121681
0.000121664
0.000121674
0.000121715
0.000121807
0.000121997
0.000122396
0.000123192
0.000124609
0.000126714
0.000129274
0.000132037
0.000135197
0.00013694
0.00013759
0.00015
0.00015
0.00015
0.00015
0.00015
0.00015
0.00013721
0.00013683
0.0001349
0.000132224
0.000129495
0.000127183
0.000125417
0.000124141
0.000123256
0.00012266
0.000122268
0.000122015
0.000121855
0.000121755
0.000121692
0.000121653
0.000121629
0.000121613
0.000121603
0.000121596
0.000121592
0.000121589
0.000121586
0.000121585
0.000121584
0.000121583
0.000121583
0.000121582
0.000121582
0.000121582
0.000121581
0.000121581
0.000121581
0.000121581
0.000121581
0.000121581
0.000121581
0.000121581
0.00012158
0.000121576
0.000121552
0.000144165
0.000138193
0.000133362
0.000129662
0.000126969
0.000125093
0.000123831
0.000123002
0.000122467
0.000122127
0.000121914
0.000121784
0.000121708
0.000121669
0.000121658
0.000121672
0.000121721
0.00012183
0.00012207
0.000122598
0.000123662
0.000125469
0.000127942
0.000130812
0.000133999
0.000136625
0.000140295
0.00015
0.00015
0.00015
0.00015
0.00015
0.00015
0.00015
0.00015
0.000135795
0.000135396
0.000133338
0.000130763
0.000128303
0.000126276
0.000124743
0.000123649
0.000122901
0.000122408
0.000122091
0.000121892
0.000121769
0.000121694
0.000121649
0.00012162
0.000121603
0.000121592
0.000121585
0.000121581
0.000121578
0.000121576
0.000121574
0.000121573
0.000121572
0.000121572
0.000121571
0.000121571
0.000121571
0.000121571
0.000121571
0.000121571
0.00012157
0.00012157
0.00012157
0.00012157
0.00012157
0.000121569
0.000121565
0.000121541
0.000144149
0.000138153
0.000133297
0.000129579
0.000126878
0.000125005
0.000123752
0.000122937
0.000122418
0.000122093
0.000121893
0.000121773
0.000121705
0.000121671
0.000121664
0.000121682
0.000121737
0.000121863
0.000122151
0.000122803
0.000124127
0.000126361
0.000129311
0.000132755
0.000135788
0.000136987
0.00015
0.00015
0.00015
0.00015
0.00015
0.00015
0.00015
0.00015
0.00015
0.00015
0.000134739
0.000133552
0.000131373
0.00012901
0.000126903
0.000125226
0.000123986
0.000123119
0.00012254
0.000122167
0.000121933
0.00012179
0.000121703
0.000121651
0.00012162
0.000121601
0.00012159
0.000121583
0.000121578
0.000121575
0.000121573
0.000121572
0.000121571
0.00012157
0.00012157
0.00012157
0.000121569
0.000121569
0.000121569
0.000121569
0.000121569
0.000121569
0.000121569
0.000121569
0.000121569
0.000121569
0.000121568
0.000121564
0.000121539
0.000144139
0.000138129
0.000133259
0.00012953
0.000126825
0.000124953
0.000123706
0.000122899
0.00012239
0.000122074
0.000121882
0.000121769
0.000121705
0.000121675
0.000121671
0.000121692
0.000121752
0.000121893
0.000122228
0.000123015
0.000124657
0.000127483
0.000131217
0.00013507
0.000138319
0.000140191
0.00015
0.00015
0.00015
0.00015
0.00015
0.00015
0.00015
0.00015
0.00015
0.00015
0.000133283
0.000132967
0.000131249
0.000129159
0.000127154
0.000125473
0.000124182
0.000123257
0.000122627
0.000122218
0.00012196
0.000121803
0.000121708
0.000121652
0.000121619
0.0001216
0.000121588
0.000121581
0.000121577
0.000121574
0.000121572
0.000121571
0.00012157
0.00012157
0.000121569
0.000121569
0.000121569
0.000121569
0.000121569
0.000121569
0.000121569
0.000121568
0.000121568
0.000121568
0.000121568
0.000121568
0.000121568
0.000121563
0.000121539
0.000144134
0.000138117
0.000133238
0.000129503
0.000126795
0.000124924
0.000123681
0.000122879
0.000122375
0.000122065
0.000121878
0.000121768
0.000121707
0.000121679
0.000121676
0.000121699
0.000121761
0.000121904
0.000122245
0.000123081
0.000125033
0.000128989
0.000133335
0.000138018
0.000140704
0.00015
0.00015
0.00015
0.00015
0.00015
0.00015
0.00015
0.00015
0.00015
0.00015
0.00015
0.00015
0.00013272
0.000131237
0.000129188
0.000127208
0.000125538
0.000124243
0.000123303
0.000122658
0.000122236
0.000121969
0.000121806
0.000121708
0.00012165
0.000121617
0.000121597
0.000121586
0.000121579
0.000121575
0.000121573
0.000121571
0.00012157
0.00012157
0.000121569
0.000121569
0.000121569
0.000121569
0.000121569
0.000121569
0.000121568
0.000121568
0.000121568
0.000121568
0.000121568
0.000121568
0.000121568
0.000121567
0.000121563
0.000121539
0.000144133
0.000138113
0.000133232
0.000129495
0.000126787
0.000124917
0.000123676
0.000122877
0.000122375
0.000122067
0.000121881
0.000121772
0.000121712
0.000121685
0.000121682
0.000121705
0.000121767
0.000121905
0.000122224
0.000123001
0.000124826
0.000128406
0.000132583
0.000136762
0.00013956
0.00015
0.00015
0.00015
0.00015
0.00015
0.00015
0.00015
0.00015
0.00015
0.00015
0.00015
0.00015
0.000132153
0.000130829
0.000128911
0.000127041
0.000125446
0.000124197
0.000123281
0.000122648
0.00012223
0.000121965
0.000121802
0.000121705
0.000121648
0.000121614
0.000121595
0.000121584
0.000121578
0.000121574
0.000121572
0.000121571
0.00012157
0.000121569
0.000121569
0.000121569
0.000121569
0.000121569
0.000121568
0.000121568
0.000121568
0.000121568
0.000121568
0.000121568
0.000121568
0.000121568
0.000121568
0.000121567
0.000121563
0.000121539
0.000144134
0.000138117
0.000133239
0.000129504
0.000126799
0.000124931
0.000123692
0.000122893
0.000122391
0.000122081
0.000121894
0.000121783
0.000121722
0.000121693
0.000121689
0.000121712
0.000121775
0.000121918
0.000122261
0.000123103
0.000125072
0.000129045
0.000133391
0.000138105
0.000140702
0.00015
0.00015
0.00015
0.00015
0.00015
0.00015
0.00015
0.00015
0.00015
0.00015
0.00015
0.00015
0.000132743
0.000131244
0.000129176
0.000127189
0.000125518
0.000124226
0.00012329
0.000122648
0.000122228
0.000121962
0.0001218
0.000121703
0.000121646
0.000121613
0.000121594
0.000121584
0.000121577
0.000121574
0.000121572
0.000121571
0.00012157
0.000121569
0.000121569
0.000121569
0.000121569
0.000121569
0.000121568
0.000121568
0.000121568
0.000121568
0.000121568
0.000121568
0.000121568
0.000121568
0.000121568
0.000121567
0.000121563
0.000121539
0.000144139
0.000138129
0.000133259
0.000129532
0.000126832
0.000124966
0.000123726
0.000122925
0.000122419
0.000122104
0.000121912
0.000121797
0.000121732
0.0001217
0.000121694
0.000121716
0.000121777
0.000121921
0.000122262
0.000123057
0.000124713
0.000127538
0.00013123
0.000135056
0.000138337
0.000140167
0.00015
0.00015
0.00015
0.00015
0.00015
0.00015
0.00015
0.00015
0.00015
0.00015
0.000133344
0.000133044
0.000131256
0.00012915
0.000127146
0.000125468
0.00012418
0.000123253
0.000122621
0.00012221
0.000121951
0.000121793
0.000121699
0.000121644
0.000121612
0.000121594
0.000121583
0.000121577
0.000121574
0.000121572
0.00012157
0.00012157
0.000121569
0.000121569
0.000121569
0.000121569
0.000121569
0.000121568
0.000121568
0.000121568
0.000121568
0.000121568
0.000121568
0.000121568
0.000121568
0.000121568
0.000121567
0.000121563
0.000121539
0.000144149
0.000138152
0.000133297
0.000129582
0.000126889
0.000125025
0.000123781
0.000122974
0.000122459
0.000122136
0.000121935
0.000121812
0.000121741
0.000121705
0.000121696
0.000121714
0.000121771
0.000121901
0.000122197
0.000122858
0.000124186
0.000126421
0.000129381
0.000132855
0.000135988
0.000137178
0.00015
0.00015
0.00015
0.00015
0.00015
0.00015
0.00015
0.00015
0.00015
0.00015
0.000134904
0.000133641
0.000131409
0.000129042
0.000126942
0.000125264
0.000124016
0.000123137
0.000122546
0.000122163
0.000121924
0.000121778
0.000121691
0.000121639
0.00012161
0.000121593
0.000121583
0.000121577
0.000121574
0.000121572
0.00012157
0.00012157
0.000121569
0.000121569
0.000121569
0.000121569
0.000121569
0.000121569
0.000121568
0.000121568
0.000121568
0.000121568
0.000121568
0.000121568
0.000121568
0.000121568
0.000121568
0.000121563
0.000121539
0.000144165
0.000138193
0.000133363
0.000129667
0.000126982
0.000125117
0.000123866
0.000123046
0.000122517
0.000122178
0.000121964
0.000121831
0.000121752
0.000121709
0.000121696
0.00012171
0.00012176
0.000121873
0.000122122
0.00012266
0.000123732
0.000125541
0.000128021
0.000130928
0.000134194
0.000136872
0.000140409
0.00015
0.00015
0.00015
0.00015
0.00015
0.00015
0.00015
0.00015
0.000136044
0.000135627
0.000133468
0.000130874
0.00012842
0.00012639
0.000124838
0.000123716
0.000122939
0.000122422
0.00012209
0.000121882
0.000121754
0.000121678
0.000121633
0.000121607
0.000121591
0.000121582
0.000121577
0.000121574
0.000121572
0.000121571
0.00012157
0.00012157
0.00012157
0.000121569
0.000121569
0.000121569
0.000121569
0.000121569
0.000121569
0.000121569
0.000121569
0.000121569
0.000121569
0.000121569
0.000121569
0.000121568
0.000121564
0.00012154
0.000144195
0.000138265
0.000133478
0.000129812
0.00012714
0.000125272
0.000124005
0.000123162
0.000122605
0.000122242
0.000122008
0.000121859
0.000121768
0.000121718
0.000121699
0.000121708
0.00012175
0.000121846
0.000122045
0.000122454
0.000123262
0.000124679
0.000126781
0.00012936
0.000132183
0.00013544
0.000137132
0.000137521
0.00015
0.00015
0.00015
0.00015
0.00015
0.00015
0.000137582
0.000137231
0.000135149
0.000132436
0.000129714
0.000127395
0.000125596
0.000124273
0.000123339
0.000122701
0.000122279
0.000122007
0.000121836
0.000121731
0.000121668
0.00012163
0.000121607
0.000121594
0.000121586
0.000121581
0.000121578
0.000121577
0.000121576
0.000121575
0.000121575
0.000121574
0.000121574
0.000121574
0.000121574
0.000121574
0.000121574
0.000121574
0.000121574
0.000121574
0.000121574
0.000121574
0.000121574
0.000121574
0.000121573
0.000121569
0.000121544
0.000144252
0.000138406
0.000133701
0.000130092
0.00012744
0.000125561
0.000124259
0.000123369
0.000122765
0.000122361
0.000122096
0.000121926
0.000121822
0.000121763
0.000121738
0.000121743
0.000121779
0.00012186
0.000122017
0.000122317
0.000122878
0.000123864
0.000125398
0.000127382
0.000129708
0.000132266
0.000134837
0.000136206
0.00013586
0.000135103
0.000134664
0.000135352
0.000136904
0.000138102
0.00013751
0.000135681
0.000133069
0.000130337
0.00012796
0.000126093
0.000124694
0.000123685
0.000122976
0.000122491
0.000122168
0.000121958
0.000121824
0.000121741
0.000121689
0.000121658
0.000121639
0.000121627
0.00012162
0.000121616
0.000121613
0.000121612
0.000121611
0.00012161
0.000121609
0.000121609
0.000121609
0.000121609
0.000121609
0.000121609
0.000121609
0.000121609
0.000121609
0.000121609
0.000121609
0.000121609
0.000121609
0.000121608
0.000121608
0.000121603
0.000121579
0.000144378
0.000138721
0.000134207
0.000130729
0.000128127
0.000126223
0.000124849
0.000123868
0.000123184
0.000122717
0.000122406
0.00012221
0.00012209
0.000122024
0.000121997
0.000122001
0.000122038
0.000122115
0.000122251
0.000122484
0.000122878
0.000123525
0.000124493
0.000125732
0.000127072
0.000128479
0.00012997
0.000131478
0.000132814
0.000133489
0.00013392
0.000134459
0.000134801
0.000134516
0.000133379
0.00013157
0.000129549
0.000127695
0.000126157
0.000124945
0.000124027
0.000123348
0.000122859
0.000122517
0.000122283
0.000122127
0.000122026
0.00012196
0.000121918
0.000121891
0.000121875
0.000121864
0.000121857
0.000121853
0.00012185
0.000121848
0.000121847
0.000121846
0.000121846
0.000121845
0.000121845
0.000121845
0.000121845
0.000121845
0.000121845
0.000121845
0.000121845
0.000121844
0.000121844
0.000121844
0.000121844
0.000121844
0.000121844
0.000121839
0.000121815
0.000144708
0.000139583
0.000135612
0.000132536
0.000130146
0.000128278
0.00012681
0.000125704
0.000124915
0.000124365
0.000123999
0.000123766
0.000123625
0.00012355
0.000123524
0.000123538
0.00012359
0.000123682
0.000123828
0.000124045
0.000124362
0.000124817
0.000125428
0.000126141
0.000126825
0.000127375
0.000127784
0.000128131
0.000128588
0.000129199
0.000129783
0.000130185
0.000130266
0.000129949
0.000129284
0.00012841
0.000127477
0.0001266
0.000125832
0.000125193
0.000124682
0.000124286
0.000123989
0.000123773
0.00012362
0.000123515
0.000123442
0.000123393
0.000123361
0.00012334
0.000123326
0.000123317
0.000123312
0.000123308
0.000123306
0.000123304
0.000123304
0.000123303
0.000123303
0.000123303
0.000123303
0.000123303
0.000123302
0.000123302
0.000123302
0.000123302
0.000123302
0.000123302
0.000123302
0.000123302
0.000123302
0.000123302
0.000123302
0.000123298
0.000123274
0.000145759
0.000142343
0.000140202
0.000138815
0.000137677
0.000136531
0.000135336
0.000134225
0.000133318
0.000132657
0.000132214
0.000131932
0.000131764
0.000131674
0.000131639
0.000131648
0.000131698
0.000131789
0.000131927
0.000132113
0.000132341
0.000132613
0.000132901
0.000133132
0.000133198
0.000133017
0.000132569
0.00013194
0.000131327
0.00013094
0.000130854
0.000130996
0.000131212
0.000131402
0.00013152
0.000131556
0.000131528
0.000131463
0.000131386
0.000131315
0.000131258
0.000131217
0.000131185
0.000131165
0.000131157
0.000131157
0.000131163
0.000131172
0.000131184
0.000131195
0.000131207
0.000131218
0.000131227
0.000131235
0.000131242
0.000131247
0.000131251
0.000131254
0.000131257
0.000131259
0.00013126
0.000131262
0.000131262
0.000131263
0.000131264
0.000131264
0.000131265
0.000131265
0.000131265
0.000131265
0.000131265
0.000131265
0.000131265
0.000131261
0.000131242
0.000149351
0.000151435
0.000156889
0.000163324
0.000168161
0.000170589
0.000171231
0.000171047
0.000170613
0.000170075
0.000169534
0.000169036
0.000168602
0.00016823
0.000167907
0.000167619
0.00016735
0.000167081
0.000166788
0.000166443
0.000166008
0.000165426
0.000164616
0.000163485
0.000161956
0.000160034
0.000157827
0.000155563
0.000153569
0.000152161
0.000151521
0.000151597
0.000152259
0.000153346
0.000154699
0.000156178
0.000157672
0.000159108
0.00016044
0.000161641
0.000162695
0.0001636
0.000164361
0.000164992
0.000165512
0.000165932
0.000166267
0.000166533
0.000166743
0.000166907
0.000167034
0.000167133
0.00016721
0.000167269
0.000167314
0.000167349
0.000167375
0.000167395
0.000167411
0.000167422
0.000167431
0.000167438
0.000167443
0.000167447
0.00016745
0.000167452
0.000167454
0.000167455
0.000167456
0.000167457
0.000167458
0.000167458
0.000167458
0.000167459
0.000167461
0.000160812
0.00018345
0.000220386
0.000257296
0.000283862
0.000297878
0.000302824
0.000303141
0.000301513
0.000299294
0.000297059
0.000295004
0.000293156
0.000291471
0.000289863
0.000288233
0.000286477
0.00028449
0.000282154
0.000279352
0.000275963
0.000271869
0.000266978
0.000261278
0.000254902
0.000248176
0.000241591
0.000235766
0.000231326
0.00022871
0.000228053
0.000229294
0.00023224
0.000236549
0.000241799
0.000247562
0.00025345
0.000259153
0.000264451
0.000269203
0.000273341
0.00027686
0.000279785
0.000282172
0.000284087
0.000285606
0.000286798
0.000287729
0.000288451
0.000289006
0.000289432
0.000289757
0.000290004
0.000290193
0.000290336
0.000290445
0.000290528
0.000290591
0.000290638
0.000290674
0.000290701
0.000290721
0.000290737
0.000290748
0.000290757
0.000290764
0.000290769
0.000290772
0.000290775
0.000290777
0.000290779
0.000290781
0.000290785
0.000290804
0.000290895
0.000199054
0.000306321
0.000464566
0.000580814
0.000619728
0.000619204
0.00060418
0.00058714
0.000572718
0.000561715
0.000553527
0.000547286
0.000542246
0.000537813
0.000533553
0.000529121
0.000524207
0.00051852
0.000511772
0.000503689
0.000494041
0.000482683
0.000469638
0.000455225
0.000440108
0.000425283
0.000411963
0.000401381
0.000394514
0.000391853
0.000393432
0.000398968
0.000407951
0.000419592
0.00043293
0.000447039
0.000461037
0.000474221
0.000486135
0.000496533
0.000505346
0.000512632
0.000518533
0.000523227
0.00052691
0.000529765
0.000531957
0.000533626
0.000534888
0.000535837
0.000536548
0.000537079
0.000537476
0.000537771
0.000537991
0.000538153
0.000538274
0.000538363
0.000538428
0.000538476
0.000538511
0.000538537
0.000538556
0.000538569
0.000538579
0.000538586
0.000538592
0.000538595
0.000538598
0.0005386
0.000538602
0.000538605
0.00053862
0.000538696
0.000539047
)
;

boundaryField
{
    ibCylinder
    {
        type            immersedBoundaryKqRWallFunction;
        patchType       immersedBoundary;
        setDeadValue    true;
        deadValue       0.00015;
        value           nonuniform List<scalar> 0();
    }
    in
    {
        type            fixedValue;
        value           uniform 0.00015;
    }
    out
    {
        type            inletOutlet;
        inletValue      uniform 0.00015;
        value           nonuniform List<scalar> 
25
(
0.000541667
0.000295916
0.000171635
0.000133211
0.000123926
0.000121986
0.000121617
0.000121552
0.000121541
0.000121539
0.000121539
0.000121539
0.000121539
0.000121539
0.000121539
0.000121539
0.00012154
0.000121544
0.000121579
0.000121815
0.000123274
0.000131242
0.000167461
0.000290895
0.000539047
)
;
    }
    top
    {
        type            zeroGradient;
    }
    bottom
    {
        type            zeroGradient;
    }
    frontAndBack
    {
        type            empty;
    }
}


// ************************************************************************* //
