/*--------------------------------*- C++ -*----------------------------------*\
| =========                 |                                                 |
| \\      /  F ield         | OpenFOAM: The Open Source CFD Toolbox           |
|  \\    /   O peration     | Version:  2206                                  |
|   \\  /    A nd           | Website:  www.openfoam.com                      |
|    \\/     M anipulation  |                                                 |
\*---------------------------------------------------------------------------*/
FoamFile
{
    version     2.0;
    format      ascii;
    arch        "LSB;label=32;scalar=64";
    class       volScalarField;
    location    "0.2";
    object      nut;
}
// * * * * * * * * * * * * * * * * * * * * * * * * * * * * * * * * * * * * * //

dimensions      [0 2 -1 0 0 0 0];

internalField   nonuniform List<scalar> 
1875
(
1.17861e-05
1.50463e-05
1.95493e-05
2.28827e-05
2.41876e-05
2.43904e-05
2.41464e-05
2.37993e-05
2.34864e-05
2.32407e-05
2.30546e-05
2.29109e-05
2.27936e-05
2.26895e-05
2.25887e-05
2.24833e-05
2.23659e-05
2.22293e-05
2.20663e-05
2.18694e-05
2.16323e-05
2.13499e-05
2.10215e-05
2.06539e-05
2.02636e-05
1.98763e-05
1.95247e-05
1.92429e-05
1.90586e-05
1.89854e-05
1.9024e-05
1.91667e-05
1.94e-05
1.97025e-05
2.00482e-05
2.04123e-05
2.07715e-05
2.11076e-05
2.14093e-05
2.16708e-05
2.18912e-05
2.20722e-05
2.2218e-05
2.23335e-05
2.24238e-05
2.24936e-05
2.25471e-05
2.25877e-05
2.26184e-05
2.26414e-05
2.26587e-05
2.26716e-05
2.26812e-05
2.26884e-05
2.26937e-05
2.26977e-05
2.27006e-05
2.27028e-05
2.27043e-05
2.27055e-05
2.27064e-05
2.2707e-05
2.27075e-05
2.27078e-05
2.27081e-05
2.27083e-05
2.27084e-05
2.27085e-05
2.27086e-05
2.27086e-05
2.27087e-05
2.27088e-05
2.27093e-05
2.2711e-05
2.27153e-05
1.06004e-05
1.12156e-05
1.2117e-05
1.31652e-05
1.40697e-05
1.46457e-05
1.49349e-05
1.50558e-05
1.50898e-05
1.5083e-05
1.50587e-05
1.50282e-05
1.49967e-05
1.4966e-05
1.49362e-05
1.4906e-05
1.48738e-05
1.48373e-05
1.47941e-05
1.4741e-05
1.46745e-05
1.45904e-05
1.44844e-05
1.43538e-05
1.41997e-05
1.40289e-05
1.38539e-05
1.36925e-05
1.35647e-05
1.34849e-05
1.34571e-05
1.34794e-05
1.35457e-05
1.36466e-05
1.37707e-05
1.39076e-05
1.40477e-05
1.41837e-05
1.43102e-05
1.44237e-05
1.45225e-05
1.46065e-05
1.46762e-05
1.47329e-05
1.47784e-05
1.48144e-05
1.48427e-05
1.48648e-05
1.4882e-05
1.48953e-05
1.49054e-05
1.49132e-05
1.49192e-05
1.49237e-05
1.49272e-05
1.49298e-05
1.49318e-05
1.49334e-05
1.49345e-05
1.49354e-05
1.49361e-05
1.49366e-05
1.4937e-05
1.49373e-05
1.49375e-05
1.49376e-05
1.49378e-05
1.49379e-05
1.49379e-05
1.4938e-05
1.4938e-05
1.49381e-05
1.49386e-05
1.49408e-05
1.49513e-05
1.02606e-05
1.04064e-05
1.05266e-05
1.06447e-05
1.07638e-05
1.08626e-05
1.09346e-05
1.09897e-05
1.10337e-05
1.10653e-05
1.10868e-05
1.11009e-05
1.11104e-05
1.11176e-05
1.11241e-05
1.1131e-05
1.11391e-05
1.11489e-05
1.11605e-05
1.11738e-05
1.1188e-05
1.12018e-05
1.12124e-05
1.12161e-05
1.12082e-05
1.11858e-05
1.11486e-05
1.11021e-05
1.10574e-05
1.10266e-05
1.10158e-05
1.10208e-05
1.10328e-05
1.10438e-05
1.10504e-05
1.10534e-05
1.10552e-05
1.10574e-05
1.10607e-05
1.10651e-05
1.10699e-05
1.10746e-05
1.10788e-05
1.10825e-05
1.10856e-05
1.10883e-05
1.10904e-05
1.10922e-05
1.10937e-05
1.10949e-05
1.10959e-05
1.10968e-05
1.10974e-05
1.1098e-05
1.10984e-05
1.10987e-05
1.1099e-05
1.10992e-05
1.10993e-05
1.10995e-05
1.10996e-05
1.10997e-05
1.10997e-05
1.10998e-05
1.10998e-05
1.10998e-05
1.10998e-05
1.10999e-05
1.10999e-05
1.10999e-05
1.10999e-05
1.10999e-05
1.11001e-05
1.1101e-05
1.11056e-05
1.01408e-05
1.01781e-05
1.02017e-05
1.02045e-05
1.01979e-05
1.01933e-05
1.01918e-05
1.01939e-05
1.01993e-05
1.02075e-05
1.02169e-05
1.02262e-05
1.02349e-05
1.0243e-05
1.02509e-05
1.02591e-05
1.02682e-05
1.02791e-05
1.02924e-05
1.03092e-05
1.03306e-05
1.03599e-05
1.04007e-05
1.04547e-05
1.05183e-05
1.05833e-05
1.06381e-05
1.06767e-05
1.0703e-05
1.07292e-05
1.07653e-05
1.08057e-05
1.08259e-05
1.08036e-05
1.07379e-05
1.06482e-05
1.05563e-05
1.04761e-05
1.04128e-05
1.03657e-05
1.03319e-05
1.03079e-05
1.02907e-05
1.02782e-05
1.02692e-05
1.02625e-05
1.02577e-05
1.02541e-05
1.02514e-05
1.02495e-05
1.02481e-05
1.02471e-05
1.02463e-05
1.02458e-05
1.02454e-05
1.02451e-05
1.02449e-05
1.02447e-05
1.02446e-05
1.02445e-05
1.02445e-05
1.02444e-05
1.02444e-05
1.02444e-05
1.02444e-05
1.02444e-05
1.02443e-05
1.02443e-05
1.02443e-05
1.02443e-05
1.02443e-05
1.02443e-05
1.02444e-05
1.02445e-05
1.02454e-05
1.01018e-05
1.00938e-05
1.00985e-05
1.01036e-05
1.0106e-05
1.01064e-05
1.01055e-05
1.01054e-05
1.01065e-05
1.0108e-05
1.01099e-05
1.01119e-05
1.01141e-05
1.01164e-05
1.01191e-05
1.01225e-05
1.01268e-05
1.01326e-05
1.01412e-05
1.01552e-05
1.01808e-05
1.0231e-05
1.03256e-05
1.0481e-05
1.06987e-05
1.09619e-05
1.12285e-05
1.14583e-05
1.16162e-05
1.16997e-05
1.17713e-05
1.18832e-05
1.19692e-05
1.19002e-05
1.16464e-05
1.13066e-05
1.09759e-05
1.07054e-05
1.05053e-05
1.03669e-05
1.02753e-05
1.02167e-05
1.01798e-05
1.01569e-05
1.01428e-05
1.0134e-05
1.01284e-05
1.01248e-05
1.01224e-05
1.01208e-05
1.01197e-05
1.0119e-05
1.01185e-05
1.01181e-05
1.01178e-05
1.01177e-05
1.01175e-05
1.01174e-05
1.01174e-05
1.01173e-05
1.01173e-05
1.01172e-05
1.01172e-05
1.01172e-05
1.01172e-05
1.01172e-05
1.01172e-05
1.01172e-05
1.01172e-05
1.01172e-05
1.01172e-05
1.01172e-05
1.01172e-05
1.01172e-05
1.01174e-05
1.00886e-05
1.0063e-05
1.00566e-05
1.00617e-05
1.00715e-05
1.00812e-05
1.00883e-05
1.00924e-05
1.00944e-05
1.0095e-05
1.00949e-05
1.00949e-05
1.00951e-05
1.00955e-05
1.00964e-05
1.00979e-05
1.01004e-05
1.01048e-05
1.01138e-05
1.01346e-05
1.0186e-05
1.03079e-05
1.0562e-05
1.10086e-05
1.1686e-05
1.26133e-05
1.36654e-05
1.47222e-05
1.53697e-05
1.50182e-05
1.44284e-05
1.46178e-05
1.54265e-05
1.56835e-05
1.47543e-05
1.35128e-05
1.24046e-05
1.15815e-05
1.10209e-05
1.06571e-05
1.04291e-05
1.02901e-05
1.02074e-05
1.01591e-05
1.01314e-05
1.01156e-05
1.01068e-05
1.01018e-05
1.00989e-05
1.00973e-05
1.00963e-05
1.00958e-05
1.00954e-05
1.00952e-05
1.00951e-05
1.0095e-05
1.00949e-05
1.00949e-05
1.00949e-05
1.00948e-05
1.00948e-05
1.00948e-05
1.00948e-05
1.00948e-05
1.00948e-05
1.00948e-05
1.00948e-05
1.00948e-05
1.00948e-05
1.00948e-05
1.00948e-05
1.00948e-05
1.00948e-05
1.00948e-05
1.00948e-05
1.00834e-05
1.00506e-05
1.00386e-05
1.0042e-05
1.00533e-05
1.00665e-05
1.00775e-05
1.0085e-05
1.00892e-05
1.0091e-05
1.00915e-05
1.00915e-05
1.00914e-05
1.00914e-05
1.00919e-05
1.0093e-05
1.00955e-05
1.0101e-05
1.01159e-05
1.01586e-05
1.02766e-05
1.05658e-05
1.11734e-05
1.22776e-05
1.41168e-05
1.72004e-05
2.17419e-05
2.973e-05
4.03268e-05
2.38199e-05
1.51352e-05
1.51364e-05
2.37865e-05
4.02418e-05
2.65326e-05
2.02562e-05
1.60673e-05
1.35425e-05
1.21026e-05
1.12607e-05
1.07641e-05
1.04731e-05
1.03045e-05
1.02085e-05
1.01546e-05
1.0125e-05
1.01089e-05
1.01002e-05
1.00956e-05
1.00932e-05
1.00919e-05
1.00912e-05
1.00908e-05
1.00906e-05
1.00905e-05
1.00905e-05
1.00904e-05
1.00904e-05
1.00904e-05
1.00904e-05
1.00904e-05
1.00904e-05
1.00904e-05
1.00904e-05
1.00904e-05
1.00904e-05
1.00904e-05
1.00904e-05
1.00904e-05
1.00904e-05
1.00904e-05
1.00904e-05
1.00904e-05
1.00904e-05
1.00903e-05
1.00809e-05
1.00449e-05
1.00302e-05
1.00323e-05
1.00438e-05
1.00581e-05
1.00708e-05
1.008e-05
1.00857e-05
1.00887e-05
1.009e-05
1.00905e-05
1.00906e-05
1.00908e-05
1.00913e-05
1.00926e-05
1.00957e-05
1.01046e-05
1.01329e-05
1.02211e-05
1.0467e-05
1.10436e-05
1.21924e-05
1.43079e-05
1.79634e-05
2.53778e-05
5.32372e-05
2.0795e-05
1e-06
1e-06
1e-06
1e-06
1e-06
1e-06
2.10491e-05
5.43149e-05
2.4391e-05
1.69735e-05
1.37497e-05
1.21374e-05
1.12486e-05
1.07426e-05
1.04532e-05
1.0289e-05
1.01972e-05
1.01468e-05
1.01196e-05
1.01051e-05
1.00975e-05
1.00936e-05
1.00916e-05
1.00906e-05
1.00901e-05
1.00898e-05
1.00897e-05
1.00896e-05
1.00896e-05
1.00896e-05
1.00895e-05
1.00895e-05
1.00895e-05
1.00895e-05
1.00895e-05
1.00895e-05
1.00895e-05
1.00895e-05
1.00895e-05
1.00895e-05
1.00895e-05
1.00895e-05
1.00895e-05
1.00895e-05
1.00895e-05
1.00895e-05
1.00895e-05
1.00797e-05
1.00419e-05
1.00257e-05
1.00271e-05
1.00387e-05
1.00535e-05
1.00669e-05
1.0077e-05
1.00835e-05
1.00873e-05
1.00892e-05
1.00901e-05
1.00905e-05
1.00909e-05
1.00916e-05
1.00932e-05
1.00977e-05
1.01126e-05
1.01637e-05
1.0326e-05
1.0764e-05
1.17225e-05
1.34747e-05
1.67545e-05
2.41702e-05
5.89645e-05
1.6109e-05
1e-06
1e-06
1e-06
1e-06
1e-06
1e-06
1e-06
1e-06
1.76354e-05
6.05592e-05
2.23722e-05
1.58089e-05
1.31501e-05
1.17995e-05
1.10524e-05
1.06279e-05
1.03863e-05
1.02504e-05
1.01753e-05
1.01344e-05
1.01127e-05
1.01013e-05
1.00954e-05
1.00924e-05
1.00909e-05
1.00901e-05
1.00898e-05
1.00896e-05
1.00895e-05
1.00894e-05
1.00894e-05
1.00894e-05
1.00894e-05
1.00894e-05
1.00894e-05
1.00894e-05
1.00894e-05
1.00894e-05
1.00894e-05
1.00894e-05
1.00894e-05
1.00894e-05
1.00894e-05
1.00894e-05
1.00894e-05
1.00894e-05
1.00894e-05
1.00894e-05
1.00789e-05
1.00402e-05
1.00232e-05
1.00242e-05
1.00357e-05
1.00508e-05
1.00647e-05
1.00752e-05
1.00823e-05
1.00866e-05
1.00889e-05
1.00901e-05
1.00907e-05
1.00912e-05
1.00921e-05
1.00942e-05
1.01007e-05
1.01238e-05
1.0205e-05
1.04586e-05
1.11154e-05
1.24927e-05
1.49205e-05
1.95369e-05
2.96102e-05
2.72593e-05
1e-06
1e-06
1e-06
1e-06
1e-06
1e-06
1e-06
1e-06
1e-06
1e-06
2.79822e-05
2.26282e-05
1.70765e-05
1.39831e-05
1.22961e-05
1.13438e-05
1.07969e-05
1.04828e-05
1.03044e-05
1.02048e-05
1.01502e-05
1.01209e-05
1.01055e-05
1.00975e-05
1.00934e-05
1.00914e-05
1.00904e-05
1.00898e-05
1.00896e-05
1.00895e-05
1.00894e-05
1.00894e-05
1.00894e-05
1.00894e-05
1.00894e-05
1.00894e-05
1.00894e-05
1.00894e-05
1.00894e-05
1.00894e-05
1.00894e-05
1.00894e-05
1.00894e-05
1.00894e-05
1.00894e-05
1.00894e-05
1.00894e-05
1.00894e-05
1.00893e-05
1.00785e-05
1.00392e-05
1.00217e-05
1.00224e-05
1.0034e-05
1.00493e-05
1.00634e-05
1.00743e-05
1.00817e-05
1.00862e-05
1.00888e-05
1.00901e-05
1.00909e-05
1.00916e-05
1.00926e-05
1.00952e-05
1.01036e-05
1.01351e-05
1.02468e-05
1.0588e-05
1.144e-05
1.31726e-05
1.62885e-05
2.24477e-05
2.40845e-05
1.2814e-05
1e-06
1e-06
1e-06
1e-06
1e-06
1e-06
1e-06
1e-06
1e-06
1e-06
1.42664e-05
1.81285e-05
1.64661e-05
1.40903e-05
1.24901e-05
1.14994e-05
1.09023e-05
1.05488e-05
1.03438e-05
1.02274e-05
1.01628e-05
1.01277e-05
1.01091e-05
1.00994e-05
1.00944e-05
1.00918e-05
1.00906e-05
1.009e-05
1.00897e-05
1.00895e-05
1.00894e-05
1.00894e-05
1.00894e-05
1.00894e-05
1.00894e-05
1.00894e-05
1.00894e-05
1.00894e-05
1.00894e-05
1.00894e-05
1.00894e-05
1.00894e-05
1.00894e-05
1.00894e-05
1.00894e-05
1.00894e-05
1.00894e-05
1.00894e-05
1.00893e-05
1.00783e-05
1.00387e-05
1.0021e-05
1.00215e-05
1.00331e-05
1.00485e-05
1.00628e-05
1.00738e-05
1.00813e-05
1.0086e-05
1.00887e-05
1.00902e-05
1.00911e-05
1.00918e-05
1.00929e-05
1.00956e-05
1.01044e-05
1.01366e-05
1.02497e-05
1.06013e-05
1.15346e-05
1.35535e-05
1.64362e-05
2.19436e-05
4.39966e-05
1e-06
1e-06
1e-06
1e-06
1e-06
1e-06
1e-06
1e-06
1e-06
1e-06
1e-06
1e-06
4.43559e-05
2.0473e-05
1.50574e-05
1.28016e-05
1.16266e-05
1.0965e-05
1.05835e-05
1.03639e-05
1.02391e-05
1.01696e-05
1.01315e-05
1.01112e-05
1.01005e-05
1.0095e-05
1.00922e-05
1.00907e-05
1.009e-05
1.00897e-05
1.00895e-05
1.00895e-05
1.00894e-05
1.00894e-05
1.00894e-05
1.00894e-05
1.00894e-05
1.00894e-05
1.00894e-05
1.00894e-05
1.00894e-05
1.00894e-05
1.00894e-05
1.00894e-05
1.00894e-05
1.00894e-05
1.00894e-05
1.00894e-05
1.00894e-05
1.00893e-05
1.00783e-05
1.00386e-05
1.00207e-05
1.00213e-05
1.00329e-05
1.00483e-05
1.00626e-05
1.00737e-05
1.00812e-05
1.0086e-05
1.00887e-05
1.00903e-05
1.00912e-05
1.00919e-05
1.0093e-05
1.00956e-05
1.01037e-05
1.01321e-05
1.02304e-05
1.05432e-05
1.14187e-05
1.3251e-05
1.53235e-05
1.99291e-05
3.99967e-05
1e-06
1e-06
1e-06
1e-06
1e-06
1e-06
1e-06
1e-06
1e-06
1e-06
1e-06
1e-06
4.03938e-05
1.99469e-05
1.48607e-05
1.27125e-05
1.15868e-05
1.09488e-05
1.05783e-05
1.03632e-05
1.02399e-05
1.01706e-05
1.01324e-05
1.01118e-05
1.01009e-05
1.00952e-05
1.00923e-05
1.00908e-05
1.00901e-05
1.00897e-05
1.00895e-05
1.00895e-05
1.00894e-05
1.00894e-05
1.00894e-05
1.00894e-05
1.00894e-05
1.00894e-05
1.00894e-05
1.00894e-05
1.00894e-05
1.00894e-05
1.00894e-05
1.00894e-05
1.00894e-05
1.00894e-05
1.00894e-05
1.00894e-05
1.00894e-05
1.00893e-05
1.00783e-05
1.00387e-05
1.0021e-05
1.00216e-05
1.00332e-05
1.00486e-05
1.00628e-05
1.00738e-05
1.00813e-05
1.0086e-05
1.00887e-05
1.00902e-05
1.00911e-05
1.00918e-05
1.00929e-05
1.00956e-05
1.01043e-05
1.01362e-05
1.02488e-05
1.0602e-05
1.15434e-05
1.356e-05
1.64294e-05
2.20033e-05
4.39545e-05
1e-06
1e-06
1e-06
1e-06
1e-06
1e-06
1e-06
1e-06
1e-06
1e-06
1e-06
1e-06
4.43621e-05
2.04043e-05
1.50834e-05
1.28195e-05
1.16374e-05
1.09722e-05
1.05887e-05
1.03677e-05
1.02419e-05
1.01715e-05
1.01328e-05
1.0112e-05
1.0101e-05
1.00953e-05
1.00923e-05
1.00908e-05
1.00901e-05
1.00897e-05
1.00896e-05
1.00895e-05
1.00894e-05
1.00894e-05
1.00894e-05
1.00894e-05
1.00894e-05
1.00894e-05
1.00894e-05
1.00894e-05
1.00894e-05
1.00894e-05
1.00894e-05
1.00894e-05
1.00894e-05
1.00894e-05
1.00894e-05
1.00894e-05
1.00894e-05
1.00893e-05
1.00785e-05
1.00392e-05
1.00217e-05
1.00225e-05
1.00341e-05
1.00494e-05
1.00635e-05
1.00743e-05
1.00817e-05
1.00861e-05
1.00887e-05
1.00901e-05
1.00909e-05
1.00915e-05
1.00926e-05
1.00952e-05
1.01038e-05
1.01357e-05
1.0248e-05
1.05893e-05
1.14378e-05
1.31498e-05
1.62223e-05
2.2344e-05
2.40426e-05
1.28095e-05
1e-06
1e-06
1e-06
1e-06
1e-06
1e-06
1e-06
1e-06
1e-06
1e-06
1.42694e-05
1.81076e-05
1.63872e-05
1.41007e-05
1.25174e-05
1.15278e-05
1.09265e-05
1.05675e-05
1.03571e-05
1.02364e-05
1.01686e-05
1.01313e-05
1.01112e-05
1.01006e-05
1.00951e-05
1.00922e-05
1.00908e-05
1.00901e-05
1.00897e-05
1.00895e-05
1.00895e-05
1.00894e-05
1.00894e-05
1.00894e-05
1.00894e-05
1.00894e-05
1.00894e-05
1.00894e-05
1.00894e-05
1.00894e-05
1.00894e-05
1.00894e-05
1.00894e-05
1.00894e-05
1.00894e-05
1.00894e-05
1.00894e-05
1.00894e-05
1.00893e-05
1.00789e-05
1.00402e-05
1.00232e-05
1.00242e-05
1.00358e-05
1.00509e-05
1.00647e-05
1.00753e-05
1.00823e-05
1.00865e-05
1.00888e-05
1.00899e-05
1.00906e-05
1.00912e-05
1.0092e-05
1.00942e-05
1.01009e-05
1.01247e-05
1.02075e-05
1.04605e-05
1.1106e-05
1.24521e-05
1.48317e-05
1.93545e-05
2.94139e-05
2.72873e-05
1e-06
1e-06
1e-06
1e-06
1e-06
1e-06
1e-06
1e-06
1e-06
1e-06
2.80059e-05
2.26431e-05
1.69895e-05
1.39942e-05
1.23455e-05
1.13982e-05
1.08432e-05
1.05177e-05
1.03286e-05
1.02207e-05
1.01602e-05
1.01269e-05
1.0109e-05
1.00995e-05
1.00945e-05
1.0092e-05
1.00907e-05
1.009e-05
1.00897e-05
1.00895e-05
1.00895e-05
1.00894e-05
1.00894e-05
1.00894e-05
1.00894e-05
1.00894e-05
1.00894e-05
1.00894e-05
1.00894e-05
1.00894e-05
1.00894e-05
1.00894e-05
1.00894e-05
1.00894e-05
1.00894e-05
1.00894e-05
1.00894e-05
1.00894e-05
1.00893e-05
1.00797e-05
1.00419e-05
1.00257e-05
1.00271e-05
1.00387e-05
1.00535e-05
1.00669e-05
1.00769e-05
1.00834e-05
1.00871e-05
1.0089e-05
1.00899e-05
1.00904e-05
1.00908e-05
1.00915e-05
1.00932e-05
1.00979e-05
1.01133e-05
1.01658e-05
1.03293e-05
1.07607e-05
1.16889e-05
1.33794e-05
1.65859e-05
2.38995e-05
5.90129e-05
1.61353e-05
1e-06
1e-06
1e-06
1e-06
1e-06
1e-06
1e-06
1e-06
1.76514e-05
6.06734e-05
2.24583e-05
1.59008e-05
1.32723e-05
1.19145e-05
1.11462e-05
1.06979e-05
1.04353e-05
1.02829e-05
1.01958e-05
1.0147e-05
1.01201e-05
1.01055e-05
1.00978e-05
1.00937e-05
1.00916e-05
1.00905e-05
1.00899e-05
1.00897e-05
1.00895e-05
1.00895e-05
1.00894e-05
1.00894e-05
1.00894e-05
1.00894e-05
1.00894e-05
1.00894e-05
1.00894e-05
1.00894e-05
1.00894e-05
1.00894e-05
1.00894e-05
1.00894e-05
1.00894e-05
1.00894e-05
1.00894e-05
1.00894e-05
1.00894e-05
1.00893e-05
1.00809e-05
1.00449e-05
1.00301e-05
1.00322e-05
1.00437e-05
1.0058e-05
1.00706e-05
1.00797e-05
1.00853e-05
1.00883e-05
1.00896e-05
1.00901e-05
1.00903e-05
1.00905e-05
1.00911e-05
1.00924e-05
1.00956e-05
1.0105e-05
1.01343e-05
1.02245e-05
1.04686e-05
1.10265e-05
1.21291e-05
1.41743e-05
1.77054e-05
2.49531e-05
5.3294e-05
2.07502e-05
1e-06
1e-06
1e-06
1e-06
1e-06
1e-06
2.10695e-05
5.44786e-05
2.46057e-05
1.71307e-05
1.39715e-05
1.23302e-05
1.14006e-05
1.08553e-05
1.05325e-05
1.03422e-05
1.02314e-05
1.01679e-05
1.01322e-05
1.01124e-05
1.01016e-05
1.00959e-05
1.00928e-05
1.00912e-05
1.00903e-05
1.00899e-05
1.00897e-05
1.00896e-05
1.00895e-05
1.00895e-05
1.00895e-05
1.00895e-05
1.00895e-05
1.00894e-05
1.00894e-05
1.00894e-05
1.00894e-05
1.00894e-05
1.00894e-05
1.00894e-05
1.00894e-05
1.00894e-05
1.00894e-05
1.00894e-05
1.00894e-05
1.00894e-05
1.00894e-05
1.00834e-05
1.00506e-05
1.00385e-05
1.00416e-05
1.00527e-05
1.00657e-05
1.00767e-05
1.00842e-05
1.00883e-05
1.00902e-05
1.00908e-05
1.00908e-05
1.00907e-05
1.00908e-05
1.00913e-05
1.00925e-05
1.00949e-05
1.01006e-05
1.01161e-05
1.01602e-05
1.02793e-05
1.05632e-05
1.11495e-05
1.22046e-05
1.39552e-05
1.69093e-05
2.12931e-05
2.93922e-05
4.03241e-05
2.38185e-05
1.51463e-05
1.51595e-05
2.38518e-05
4.03606e-05
2.68235e-05
2.04785e-05
1.62932e-05
1.38257e-05
1.23558e-05
1.14633e-05
1.0916e-05
1.05809e-05
1.03776e-05
1.02559e-05
1.01842e-05
1.01427e-05
1.01191e-05
1.01059e-05
1.00986e-05
1.00946e-05
1.00924e-05
1.00913e-05
1.00906e-05
1.00903e-05
1.00901e-05
1.009e-05
1.009e-05
1.00899e-05
1.00899e-05
1.00899e-05
1.00899e-05
1.00899e-05
1.00899e-05
1.00899e-05
1.00899e-05
1.00899e-05
1.00899e-05
1.00899e-05
1.00899e-05
1.00899e-05
1.00899e-05
1.00899e-05
1.00899e-05
1.00899e-05
1.00898e-05
1.00887e-05
1.00629e-05
1.00559e-05
1.00604e-05
1.00696e-05
1.00791e-05
1.00864e-05
1.00907e-05
1.00928e-05
1.00934e-05
1.00934e-05
1.00933e-05
1.00934e-05
1.00937e-05
1.00945e-05
1.00959e-05
1.00983e-05
1.01027e-05
1.01118e-05
1.01331e-05
1.01857e-05
1.03076e-05
1.05553e-05
1.09811e-05
1.1621e-05
1.24948e-05
1.34896e-05
1.45264e-05
1.51846e-05
1.49525e-05
1.44198e-05
1.46282e-05
1.5451e-05
1.57469e-05
1.48741e-05
1.37199e-05
1.26553e-05
1.18256e-05
1.12285e-05
1.08187e-05
1.05469e-05
1.03713e-05
1.02606e-05
1.01923e-05
1.0151e-05
1.01266e-05
1.01123e-05
1.0104e-05
1.00993e-05
1.00966e-05
1.00951e-05
1.00942e-05
1.00937e-05
1.00934e-05
1.00932e-05
1.00931e-05
1.0093e-05
1.0093e-05
1.00929e-05
1.00929e-05
1.00929e-05
1.00929e-05
1.00929e-05
1.00929e-05
1.00929e-05
1.00929e-05
1.00929e-05
1.00929e-05
1.00929e-05
1.00929e-05
1.00929e-05
1.00929e-05
1.00929e-05
1.00929e-05
1.00928e-05
1.0102e-05
1.00935e-05
1.00966e-05
1.01e-05
1.01017e-05
1.01024e-05
1.01021e-05
1.01024e-05
1.01036e-05
1.01048e-05
1.01062e-05
1.01076e-05
1.01092e-05
1.0111e-05
1.01133e-05
1.01162e-05
1.01202e-05
1.01257e-05
1.01339e-05
1.01477e-05
1.01734e-05
1.02237e-05
1.03166e-05
1.04654e-05
1.06711e-05
1.09198e-05
1.11758e-05
1.14097e-05
1.15888e-05
1.1706e-05
1.17975e-05
1.19103e-05
1.2001e-05
1.19621e-05
1.17546e-05
1.14521e-05
1.11343e-05
1.08528e-05
1.06278e-05
1.046e-05
1.0341e-05
1.02596e-05
1.02057e-05
1.01707e-05
1.01485e-05
1.01346e-05
1.01259e-05
1.01205e-05
1.01171e-05
1.01149e-05
1.01136e-05
1.01127e-05
1.01121e-05
1.01117e-05
1.01115e-05
1.01113e-05
1.01112e-05
1.01111e-05
1.0111e-05
1.0111e-05
1.0111e-05
1.01109e-05
1.01109e-05
1.01109e-05
1.01109e-05
1.01109e-05
1.01109e-05
1.01109e-05
1.01109e-05
1.01109e-05
1.01109e-05
1.01109e-05
1.01109e-05
1.01109e-05
1.01108e-05
1.0141e-05
1.0177e-05
1.0197e-05
1.01968e-05
1.01887e-05
1.0183e-05
1.01805e-05
1.01813e-05
1.01854e-05
1.0192e-05
1.01998e-05
1.02078e-05
1.02153e-05
1.02225e-05
1.02296e-05
1.02371e-05
1.02457e-05
1.0256e-05
1.02688e-05
1.0285e-05
1.03059e-05
1.03346e-05
1.03745e-05
1.04267e-05
1.04878e-05
1.05507e-05
1.06064e-05
1.06505e-05
1.06868e-05
1.07241e-05
1.07683e-05
1.08145e-05
1.08434e-05
1.08356e-05
1.07862e-05
1.07071e-05
1.0616e-05
1.05279e-05
1.04515e-05
1.039e-05
1.03431e-05
1.03084e-05
1.02831e-05
1.02651e-05
1.02523e-05
1.02434e-05
1.02371e-05
1.02328e-05
1.02297e-05
1.02276e-05
1.02261e-05
1.0225e-05
1.02243e-05
1.02238e-05
1.02234e-05
1.02231e-05
1.02229e-05
1.02228e-05
1.02227e-05
1.02226e-05
1.02226e-05
1.02225e-05
1.02225e-05
1.02225e-05
1.02225e-05
1.02225e-05
1.02225e-05
1.02225e-05
1.02225e-05
1.02225e-05
1.02224e-05
1.02224e-05
1.02224e-05
1.02224e-05
1.02222e-05
1.02606e-05
1.04032e-05
1.0517e-05
1.06249e-05
1.0728e-05
1.08087e-05
1.08668e-05
1.09133e-05
1.09531e-05
1.09828e-05
1.10037e-05
1.10177e-05
1.10275e-05
1.10352e-05
1.10421e-05
1.10495e-05
1.10582e-05
1.10686e-05
1.10809e-05
1.10949e-05
1.11101e-05
1.11249e-05
1.11368e-05
1.1142e-05
1.1136e-05
1.11162e-05
1.10829e-05
1.10415e-05
1.10026e-05
1.09773e-05
1.0971e-05
1.098e-05
1.09961e-05
1.10114e-05
1.10213e-05
1.10248e-05
1.10236e-05
1.10203e-05
1.10166e-05
1.10137e-05
1.10118e-05
1.10109e-05
1.10106e-05
1.10108e-05
1.10114e-05
1.10121e-05
1.10129e-05
1.10137e-05
1.10144e-05
1.10151e-05
1.10157e-05
1.10163e-05
1.10167e-05
1.10171e-05
1.10174e-05
1.10177e-05
1.10179e-05
1.1018e-05
1.10182e-05
1.10183e-05
1.10183e-05
1.10184e-05
1.10185e-05
1.10185e-05
1.10185e-05
1.10185e-05
1.10186e-05
1.10186e-05
1.10186e-05
1.10186e-05
1.10186e-05
1.10186e-05
1.10186e-05
1.10187e-05
1.10188e-05
1.0599e-05
1.12115e-05
1.21007e-05
1.3116e-05
1.39834e-05
1.45298e-05
1.48031e-05
1.49186e-05
1.49532e-05
1.49494e-05
1.49286e-05
1.49011e-05
1.48721e-05
1.48435e-05
1.48154e-05
1.47867e-05
1.47558e-05
1.47207e-05
1.4679e-05
1.46276e-05
1.45631e-05
1.44814e-05
1.43782e-05
1.42509e-05
1.41006e-05
1.39341e-05
1.37636e-05
1.36069e-05
1.34831e-05
1.34065e-05
1.33809e-05
1.34045e-05
1.34716e-05
1.35725e-05
1.36956e-05
1.38302e-05
1.39669e-05
1.40985e-05
1.42202e-05
1.4329e-05
1.44234e-05
1.45034e-05
1.45698e-05
1.46238e-05
1.4667e-05
1.47012e-05
1.47281e-05
1.47492e-05
1.47655e-05
1.47781e-05
1.47878e-05
1.47953e-05
1.4801e-05
1.48053e-05
1.48086e-05
1.48111e-05
1.48131e-05
1.48146e-05
1.48157e-05
1.48165e-05
1.48172e-05
1.48177e-05
1.4818e-05
1.48183e-05
1.48185e-05
1.48187e-05
1.48188e-05
1.48189e-05
1.4819e-05
1.4819e-05
1.48191e-05
1.48191e-05
1.48193e-05
1.482e-05
1.48237e-05
1.17858e-05
1.50403e-05
1.95251e-05
2.28332e-05
2.41181e-05
2.43116e-05
2.40663e-05
2.37219e-05
2.34129e-05
2.31709e-05
2.29878e-05
2.28462e-05
2.27304e-05
2.26274e-05
2.25274e-05
2.24226e-05
2.23057e-05
2.21697e-05
2.20072e-05
2.18111e-05
2.15749e-05
2.12936e-05
2.09667e-05
2.06011e-05
2.0213e-05
1.98282e-05
1.94791e-05
1.91994e-05
1.90164e-05
1.89439e-05
1.89825e-05
1.91248e-05
1.93574e-05
1.96589e-05
2.00034e-05
2.0366e-05
2.07235e-05
2.10578e-05
2.13577e-05
2.16176e-05
2.18364e-05
2.20162e-05
2.2161e-05
2.22756e-05
2.23653e-05
2.24345e-05
2.24876e-05
2.25279e-05
2.25583e-05
2.25812e-05
2.25984e-05
2.26112e-05
2.26207e-05
2.26279e-05
2.26332e-05
2.26371e-05
2.264e-05
2.26422e-05
2.26437e-05
2.26449e-05
2.26458e-05
2.26464e-05
2.26468e-05
2.26472e-05
2.26474e-05
2.26476e-05
2.26477e-05
2.26478e-05
2.26479e-05
2.26479e-05
2.2648e-05
2.26481e-05
2.26487e-05
2.26516e-05
2.26649e-05
)
;

boundaryField
{
    ibCylinder
    {
        type            immersedBoundaryNutWallFunction;
        patchType       immersedBoundary;
        blending        stepwise;
        value           nonuniform List<scalar> 0();
    }
    in
    {
        type            zeroGradient;
    }
    out
    {
        type            zeroGradient;
    }
    top
    {
        type            zeroGradient;
    }
    bottom
    {
        type            zeroGradient;
    }
    frontAndBack
    {
        type            empty;
    }
}


// ************************************************************************* //
