/*--------------------------------*- C++ -*----------------------------------*\
| =========                 |                                                 |
| \\      /  F ield         | OpenFOAM: The Open Source CFD Toolbox           |
|  \\    /   O peration     | Version:  2206                                  |
|   \\  /    A nd           | Website:  www.openfoam.com                      |
|    \\/     M anipulation  |                                                 |
\*---------------------------------------------------------------------------*/
FoamFile
{
    version     2.0;
    format      ascii;
    arch        "LSB;label=32;scalar=64";
    class       volScalarField;
    location    "0.2";
    object      p;
}
// * * * * * * * * * * * * * * * * * * * * * * * * * * * * * * * * * * * * * //

dimensions      [0 2 -2 0 0 0 0];

internalField   nonuniform List<scalar> 
1875
(
2.758
2.3694
2.1184
2.0209
1.96519
1.92463
1.897
1.8787
1.86499
1.85288
1.84089
1.82833
1.8149
1.80045
1.78487
1.76803
1.74974
1.72973
1.70763
1.68302
1.65539
1.62412
1.58862
1.54812
1.50206
1.45007
1.39199
1.32803
1.25878
1.18531
1.10909
1.03201
0.956222
0.883756
0.816181
0.754429
0.698877
0.649499
0.605943
0.56764
0.533897
0.504009
0.47738
0.453435
0.431678
0.411703
0.39316
0.37576
0.359273
0.343513
0.328331
0.313602
0.299231
0.285139
0.271268
0.257568
0.244002
0.23054
0.217159
0.20384
0.19057
0.177338
0.164135
0.150955
0.137792
0.124642
0.111502
0.0983705
0.085245
0.0721239
0.0590064
0.0458913
0.0327783
0.0196665
0.00655549
2.38326
2.22794
2.10006
2.02309
1.97222
1.93361
1.90477
1.88469
1.86942
1.85611
1.84327
1.83017
1.81644
1.80188
1.78634
1.76964
1.75157
1.73189
1.71024
1.68617
1.65916
1.62853
1.59356
1.55358
1.50792
1.45607
1.39775
1.33307
1.26264
1.18754
1.10941
1.03038
0.952766
0.878901
0.810466
0.748346
0.692879
0.643927
0.600983
0.563351
0.530291
0.50109
0.475051
0.451591
0.430231
0.410571
0.392276
0.37507
0.358736
0.3431
0.328013
0.313359
0.299044
0.284997
0.271159
0.257485
0.243939
0.230492
0.217122
0.203812
0.190549
0.177322
0.164123
0.150945
0.137784
0.124636
0.111498
0.0983673
0.0852425
0.072122
0.0590049
0.0458903
0.0327775
0.019666
0.00655532
2.2068
2.15672
2.08692
2.02905
1.98308
1.94516
1.91633
1.89464
1.87704
1.86167
1.84742
1.83345
1.81921
1.80443
1.78893
1.77246
1.75481
1.73571
1.7148
1.69166
1.66574
1.63633
1.60265
1.56387
1.51915
1.4678
1.40928
1.34347
1.27097
1.19297
1.11103
1.02767
0.946086
0.869258
0.799007
0.736153
0.680849
0.632709
0.590998
0.554764
0.523093
0.495159
0.470242
0.447737
0.42717
0.408157
0.390384
0.373594
0.35759
0.34221
0.327325
0.312827
0.298634
0.284681
0.270918
0.257301
0.243798
0.230383
0.217039
0.203749
0.190501
0.177285
0.164095
0.150924
0.137768
0.124624
0.111488
0.09836
0.085237
0.0721179
0.0590019
0.0458882
0.0327762
0.0196652
0.00655512
2.12809
2.10735
2.06317
2.02014
1.98303
1.95127
1.92509
1.90286
1.88418
1.86777
1.85264
1.83795
1.8232
1.80821
1.79283
1.77676
1.75973
1.74149
1.72171
1.69997
1.67568
1.64812
1.61643
1.57957
1.5365
1.48623
1.42766
1.36046
1.28518
1.20288
1.11447
1.02353
0.935255
0.853634
0.780527
0.716577
0.661694
0.615004
0.575285
0.541263
0.511797
0.485849
0.462657
0.441626
0.422299
0.404311
0.387366
0.371236
0.355756
0.340789
0.326224
0.311977
0.297978
0.284176
0.270529
0.257001
0.243567
0.230207
0.216904
0.203646
0.190422
0.177225
0.164049
0.150888
0.137741
0.124603
0.111473
0.098348
0.0852279
0.0721112
0.058997
0.0458847
0.0327739
0.019664
0.00655474
2.0761
2.06551
2.03861
2.00765
1.979
1.95239
1.92887
1.90799
1.88953
1.87302
1.85745
1.84229
1.82734
1.81253
1.79761
1.78218
1.76602
1.74895
1.73072
1.71085
1.6888
1.66383
1.63502
1.60104
1.56066
1.51233
1.4541
1.38533
1.30656
1.21873
1.12018
1.01754
0.918632
0.830255
0.753502
0.688143
0.634349
0.590338
0.553865
0.523066
0.496713
0.473551
0.452719
0.433652
0.415939
0.39926
0.383377
0.368106
0.353313
0.338891
0.324755
0.310841
0.297102
0.283501
0.27001
0.256602
0.243261
0.229972
0.216723
0.203507
0.190315
0.177143
0.163986
0.150841
0.137704
0.124575
0.111451
0.0983317
0.0852156
0.0721019
0.0589902
0.0458799
0.0327707
0.0196622
0.00655418
2.04018
2.03424
2.01722
1.9951
1.97267
1.95079
1.93002
1.91076
1.89309
1.8768
1.86115
1.84603
1.83145
1.8171
1.80271
1.78809
1.7731
1.7576
1.74135
1.72391
1.7048
1.68337
1.65863
1.62871
1.59256
1.54755
1.49109
1.4205
1.33738
1.23975
1.12444
1.00662
0.894679
0.797748
0.718459
0.650841
0.598258
0.558086
0.526448
0.500504
0.478196
0.458711
0.440913
0.424285
0.408524
0.393406
0.378769
0.364492
0.350484
0.336679
0.32303
0.309501
0.296065
0.282701
0.269392
0.256126
0.242894
0.22969
0.216507
0.20334
0.190187
0.177045
0.16391
0.150782
0.13766
0.124541
0.111425
0.0983118
0.0852004
0.0720905
0.0589818
0.0458739
0.0327667
0.0196599
0.00655343
2.01493
2.01117
1.99967
1.98335
1.96551
1.94728
1.92916
1.91173
1.89515
1.87943
1.86427
1.84961
1.83546
1.8216
1.80789
1.79427
1.78071
1.76707
1.7531
1.73858
1.72321
1.70637
1.68705
1.66357
1.63376
1.59382
1.54143
1.47311
1.40398
1.29477
1.14
0.983617
0.842499
0.719984
0.653565
0.59503
0.551411
0.518073
0.493325
0.473852
0.456948
0.44184
0.427736
0.413944
0.400407
0.387065
0.373824
0.360639
0.34748
0.334336
0.321204
0.308081
0.294961
0.281843
0.268726
0.255611
0.242497
0.229383
0.216271
0.203159
0.190047
0.176937
0.163828
0.150719
0.137611
0.124503
0.111396
0.0982898
0.0851837
0.0720779
0.0589725
0.0458673
0.0327623
0.0196573
0.00655257
1.99666
1.994
1.98567
1.97318
1.95872
1.9433
1.92745
1.91168
1.89625
1.88129
1.86676
1.85267
1.83905
1.82584
1.81301
1.80054
1.78847
1.77677
1.76536
1.75422
1.74321
1.73192
1.71949
1.70554
1.68567
1.65743
1.60705
1.56796
0
0
0
0
0
0
0.58087
0.515866
0.485208
0.468121
0.454899
0.443993
0.433801
0.423842
0.413912
0.40325
0.392088
0.380595
0.368801
0.356741
0.344458
0.331996
0.319391
0.306675
0.29387
0.280995
0.268068
0.255101
0.242101
0.229077
0.216034
0.202975
0.189906
0.176828
0.163744
0.150654
0.137561
0.124465
0.111367
0.0982673
0.0851666
0.072065
0.0589629
0.0458604
0.0327577
0.0196547
0.00655166
1.98335
1.9813
1.97484
1.96489
1.95284
1.93954
1.9255
1.91113
1.89675
1.88257
1.86869
1.8552
1.84218
1.82968
1.81775
1.80644
1.79588
1.78616
1.77742
1.76982
1.7636
1.75864
1.75454
1.7514
1.74266
1.73279
1.70036
0
0
0
0
0
0
0
0
0.439431
0.411913
0.410958
0.413187
0.413395
0.410389
0.406016
0.400226
0.39288
0.384131
0.374436
0.36404
0.353063
0.341615
0.329798
0.317691
0.305359
0.292852
0.280209
0.26746
0.25463
0.241736
0.228794
0.215814
0.202806
0.189775
0.176726
0.163665
0.150593
0.137514
0.124429
0.111339
0.098246
0.0851503
0.0720527
0.0589538
0.0458539
0.0327533
0.0196522
0.00655079
1.97384
1.97215
1.96685
1.95852
1.94814
1.93637
1.92368
1.91042
1.89692
1.88343
1.87014
1.85721
1.84476
1.83293
1.82182
1.8116
1.80244
1.7946
1.78839
1.78417
1.78275
1.78422
1.78792
1.79157
1.78445
1.80983
0
0
0
0
0
0
0
0
0
0
0.347009
0.353764
0.373534
0.384613
0.388829
0.38977
0.387962
0.383604
0.377071
0.369029
0.359883
0.349863
0.33915
0.327896
0.316223
0.304225
0.291975
0.27953
0.266935
0.254224
0.241422
0.228551
0.215626
0.20266
0.189662
0.176639
0.163597
0.150541
0.137474
0.124398
0.111315
0.0982274
0.0851361
0.072042
0.0589458
0.0458482
0.0327495
0.01965
0.00655
1.96744
1.96596
1.96136
1.95404
1.94475
1.93401
1.92222
1.90977
1.89692
1.88397
1.87115
1.85866
1.84668
1.83539
1.82497
1.81564
1.80769
1.80145
1.79746
1.79659
1.79898
1.80561
1.81712
1.82445
1.79059
1.92527
0
0
0
0
0
0
0
0
0
0
0.282481
0.303565
0.339471
0.360658
0.371299
0.376691
0.378265
0.37623
0.371491
0.364787
0.356642
0.347379
0.337242
0.326428
0.31509
0.30335
0.291299
0.279008
0.266531
0.253911
0.24118
0.228364
0.215481
0.202548
0.189575
0.176572
0.163545
0.1505
0.137442
0.124373
0.111296
0.0982128
0.0851248
0.0720335
0.0589395
0.0458437
0.0327464
0.0196482
0.0065494
1.96374
1.96239
1.95815
1.95138
1.94271
1.93255
1.9213
1.90932
1.89688
1.88426
1.87174
1.85954
1.84786
1.83692
1.82695
1.81823
1.81112
1.80608
1.80385
1.80518
1.81147
1.82483
1.84026
1.85175
1.81037
0
0
0
0
0
0
0
0
0
0
0
0
0.274872
0.316662
0.345792
0.360332
0.368251
0.371977
0.371509
0.367905
0.36207
0.354575
0.3458
0.336033
0.325498
0.314375
0.302798
0.290872
0.278678
0.266276
0.253714
0.241027
0.228245
0.215389
0.202476
0.189519
0.176528
0.163511
0.150474
0.137422
0.124357
0.111284
0.0982032
0.0851174
0.0720278
0.0589353
0.0458406
0.0327444
0.019647
0.00654899
1.96252
1.96121
1.95709
1.95048
1.94202
1.93205
1.92097
1.90916
1.89685
1.88435
1.87193
1.85983
1.84826
1.83744
1.82762
1.8191
1.81231
1.80768
1.80591
1.80798
1.81519
1.82947
1.84677
1.8573
1.83019
0
0
0
0
0
0
0
0
0
0
0
0
0.262732
0.307993
0.340703
0.35661
0.36523
0.369785
0.369895
0.366665
0.361133
0.353863
0.345257
0.335617
0.325179
0.314128
0.302607
0.290725
0.278564
0.266187
0.253645
0.240974
0.228203
0.215357
0.202451
0.189499
0.176512
0.163499
0.150464
0.137414
0.124351
0.111279
0.0981991
0.0851142
0.0720253
0.0589334
0.0458392
0.0327434
0.0196465
0.0065488
1.96371
1.96236
1.95812
1.95135
1.94269
1.93252
1.92128
1.9093
1.89686
1.88424
1.87172
1.85952
1.84785
1.83691
1.82694
1.81822
1.81111
1.80606
1.80384
1.80516
1.81143
1.82478
1.84032
1.85186
1.81116
0
0
0
0
0
0
0
0
0
0
0
0
0.275107
0.316751
0.345829
0.360346
0.368263
0.371968
0.371492
0.367895
0.362064
0.354568
0.345794
0.336027
0.325493
0.314369
0.302792
0.290867
0.278673
0.266271
0.253709
0.241023
0.228241
0.215385
0.202472
0.189515
0.176525
0.163508
0.150471
0.137419
0.124354
0.111281
0.0982009
0.0851155
0.0720262
0.058934
0.0458396
0.0327437
0.0196466
0.00654884
1.96738
1.96591
1.96131
1.95399
1.94471
1.93396
1.92218
1.90973
1.89689
1.88393
1.87111
1.85863
1.84665
1.83536
1.82494
1.81562
1.80766
1.80143
1.79743
1.79655
1.7989
1.8055
1.81692
1.8239
1.78976
1.94125
0
0
0
0
0
0
0
0
0
0
0.282818
0.303724
0.339517
0.36068
0.371301
0.376699
0.378258
0.376209
0.371478
0.364777
0.356631
0.347367
0.33723
0.326416
0.315079
0.303339
0.291288
0.278998
0.266521
0.253902
0.241171
0.228355
0.215473
0.202539
0.189567
0.176564
0.163538
0.150494
0.137436
0.124367
0.111291
0.0982082
0.085121
0.0720303
0.0589369
0.0458417
0.0327451
0.0196474
0.00654907
1.97376
1.97207
1.96677
1.95845
1.94807
1.93631
1.92362
1.91036
1.89686
1.88338
1.87009
1.85716
1.84472
1.83288
1.82178
1.81156
1.80241
1.79457
1.78835
1.78411
1.78267
1.78409
1.7877
1.79104
1.78402
1.8115
0
0
0
0
0
0
0
0
0
0
0.346946
0.353779
0.373554
0.384626
0.388817
0.389755
0.387945
0.383575
0.377051
0.369011
0.359865
0.349845
0.339132
0.327879
0.316206
0.304208
0.291959
0.279515
0.266921
0.25421
0.241409
0.228538
0.215613
0.202648
0.18965
0.176628
0.163587
0.150531
0.137464
0.124389
0.111307
0.0982207
0.0851304
0.0720372
0.058942
0.0458453
0.0327474
0.0196487
0.00654952
1.98325
1.9812
1.97474
1.96479
1.95275
1.93946
1.92542
1.91105
1.89668
1.88251
1.86863
1.85514
1.84213
1.82963
1.8177
1.8064
1.79584
1.78613
1.77738
1.76978
1.76354
1.75857
1.75448
1.75128
1.74274
1.73378
1.69877
0
0
0
0
0
0
0
0
0.439299
0.411769
0.41095
0.413193
0.413381
0.410379
0.40599
0.400194
0.392851
0.384105
0.374411
0.364015
0.353038
0.341591
0.329775
0.317669
0.305338
0.292831
0.280189
0.267441
0.254611
0.241718
0.228776
0.215797
0.202789
0.189759
0.176712
0.163651
0.150581
0.137502
0.124418
0.111329
0.0982373
0.0851428
0.0720465
0.0589488
0.0458501
0.0327506
0.0196505
0.00655016
1.99655
1.99388
1.98555
1.97306
1.95861
1.94319
1.92735
1.91159
1.89617
1.88121
1.86669
1.8526
1.83898
1.82578
1.81295
1.80049
1.78842
1.77673
1.76532
1.75418
1.74317
1.73189
1.71948
1.70559
1.68589
1.65804
1.60689
1.56791
0
0
0
0
0
0
0.580856
0.515774
0.485112
0.4681
0.454885
0.443965
0.433772
0.423812
0.413876
0.403218
0.392057
0.380563
0.36877
0.356711
0.344429
0.331967
0.319364
0.306649
0.293845
0.280971
0.268045
0.255079
0.24208
0.229056
0.216013
0.202956
0.189888
0.176811
0.163727
0.150639
0.137547
0.124452
0.111355
0.0982567
0.0851574
0.0720573
0.0589568
0.0458557
0.0327543
0.0196527
0.00655089
2.0148
2.01103
1.99953
1.98322
1.96538
1.94716
1.92905
1.91162
1.89505
1.87934
1.86418
1.84953
1.83538
1.82153
1.80782
1.79421
1.78065
1.76702
1.75306
1.73854
1.72317
1.70634
1.68704
1.6636
1.63387
1.59404
1.54152
1.47307
1.40399
1.29477
1.13997
0.983654
0.842489
0.720023
0.653551
0.594976
0.551348
0.518032
0.493309
0.47382
0.456917
0.441803
0.427701
0.41391
0.400371
0.387029
0.373788
0.360603
0.347446
0.334302
0.321172
0.30805
0.294932
0.281815
0.268699
0.255585
0.242471
0.229359
0.216247
0.203136
0.190026
0.176917
0.163808
0.150701
0.137594
0.124488
0.111382
0.0982774
0.085173
0.072069
0.0589652
0.0458617
0.0327583
0.0196549
0.00655165
2.04003
2.03409
2.01707
1.99495
1.97253
1.95066
1.9299
1.91064
1.89298
1.8767
1.86105
1.84594
1.83136
1.81702
1.80264
1.78803
1.77304
1.75755
1.7413
1.72386
1.70476
1.68334
1.65862
1.62874
1.59261
1.54765
1.49116
1.42049
1.3374
1.23976
1.12444
1.00663
0.894684
0.797744
0.718447
0.650795
0.59822
0.558049
0.526426
0.500476
0.478164
0.458675
0.440878
0.424247
0.408485
0.393366
0.378728
0.364452
0.350444
0.336641
0.322994
0.309466
0.296032
0.282669
0.269362
0.256097
0.242866
0.229662
0.21648
0.203315
0.190163
0.177022
0.163889
0.150762
0.137641
0.124524
0.11141
0.0982981
0.0851884
0.0720804
0.0589735
0.0458675
0.0327621
0.0196571
0.00655239
2.07594
2.06535
2.03845
2.00749
1.97885
1.95225
1.92873
1.90787
1.88941
1.87291
1.85734
1.8422
1.82725
1.81244
1.79753
1.78211
1.76595
1.74889
1.73066
1.7108
1.68875
1.66379
1.635
1.60104
1.56069
1.51238
1.45414
1.38535
1.30658
1.21874
1.12019
1.01755
0.91864
0.830253
0.753485
0.688112
0.634309
0.5903
0.55384
0.523038
0.496677
0.473515
0.452681
0.433612
0.415896
0.399217
0.383332
0.368062
0.35327
0.338849
0.324715
0.310803
0.297066
0.283467
0.269977
0.25657
0.24323
0.229942
0.216695
0.20348
0.190289
0.177118
0.163962
0.150818
0.137684
0.124556
0.111434
0.0983166
0.0852023
0.0720907
0.058981
0.0458728
0.0327656
0.0196591
0.00655302
2.12791
2.10718
2.063
2.01998
1.98287
1.95112
1.92495
1.90272
1.88405
1.86765
1.85253
1.83785
1.8231
1.80812
1.79275
1.77668
1.75966
1.74142
1.72165
1.69991
1.67563
1.64807
1.61639
1.57955
1.53651
1.48625
1.42768
1.36047
1.28519
1.20289
1.11448
1.02353
0.935259
0.853632
0.780512
0.716554
0.661663
0.614974
0.575258
0.541232
0.511762
0.485812
0.462619
0.441586
0.422256
0.404266
0.387319
0.37119
0.35571
0.340744
0.326181
0.311936
0.29794
0.28414
0.270494
0.256967
0.243534
0.230176
0.216874
0.203617
0.190394
0.177199
0.164023
0.150865
0.137719
0.124583
0.111454
0.0983317
0.0852136
0.072099
0.058987
0.0458769
0.0327683
0.0196606
0.00655347
2.20662
2.15655
2.08674
2.02888
1.98291
1.945
1.91618
1.8945
1.87691
1.86154
1.84731
1.83335
1.81911
1.80434
1.78884
1.77238
1.75473
1.73563
1.71473
1.6916
1.66568
1.63627
1.60261
1.56384
1.51914
1.46781
1.40929
1.34348
1.27098
1.19298
1.11103
1.02768
0.946089
0.869255
0.798996
0.736136
0.680826
0.632683
0.590971
0.554735
0.523061
0.495124
0.470205
0.447697
0.427128
0.408111
0.390336
0.373546
0.357543
0.342163
0.327279
0.312784
0.298593
0.284643
0.270881
0.257265
0.243764
0.230351
0.217008
0.203719
0.190472
0.177258
0.164069
0.150899
0.137745
0.124602
0.111469
0.0983427
0.0852218
0.072105
0.0589912
0.0458799
0.0327701
0.0196616
0.00655375
2.38307
2.22777
2.09988
2.02291
1.97206
1.93345
1.90462
1.88455
1.86929
1.85598
1.84315
1.83006
1.81633
1.80178
1.78625
1.76955
1.75149
1.73181
1.71017
1.68611
1.6591
1.62848
1.59352
1.55356
1.50791
1.45607
1.39776
1.33308
1.26264
1.18755
1.10942
1.03039
0.952768
0.878899
0.810457
0.748331
0.69286
0.643904
0.600958
0.563324
0.53026
0.501057
0.475014
0.451552
0.430188
0.410525
0.392228
0.375021
0.358687
0.343052
0.327967
0.313314
0.299002
0.284957
0.271121
0.257449
0.243904
0.230458
0.21709
0.203782
0.19052
0.177294
0.164096
0.15092
0.13776
0.124614
0.111478
0.0983493
0.0852267
0.0721085
0.0589938
0.0458816
0.0327712
0.0196622
0.00655391
2.75782
2.36922
2.11822
2.02073
1.96502
1.92447
1.89685
1.87856
1.86486
1.85275
1.84077
1.82822
1.81479
1.80035
1.78478
1.76794
1.74966
1.72965
1.70755
1.68295
1.65532
1.62407
1.58857
1.54809
1.50205
1.45006
1.39199
1.32803
1.25879
1.18531
1.10909
1.03201
0.956223
0.883752
0.816171
0.754414
0.698859
0.649478
0.60592
0.567615
0.53387
0.503979
0.477347
0.453397
0.431637
0.411659
0.393113
0.375712
0.359224
0.343466
0.328285
0.313558
0.299189
0.285099
0.27123
0.257532
0.243967
0.230506
0.217126
0.203809
0.190541
0.17731
0.164108
0.150929
0.137767
0.124619
0.111482
0.0983522
0.0852288
0.0721101
0.0589949
0.0458824
0.0327717
0.0196624
0.006554
)
;

boundaryField
{
    ibCylinder
    {
        type            zeroGradientIb;
        patchType       immersedBoundary;
        setDeadValue    true;
        deadValue       0;
        value           nonuniform List<scalar> 0();
    }
    in
    {
        type            zeroGradient;
    }
    out
    {
        type            fixedValue;
        value           uniform 0;
    }
    top
    {
        type            zeroGradient;
    }
    bottom
    {
        type            zeroGradient;
    }
    frontAndBack
    {
        type            empty;
    }
}


// ************************************************************************* //
