/*--------------------------------*- C++ -*----------------------------------*\
| =========                 |                                                 |
| \\      /  F ield         | OpenFOAM: The Open Source CFD Toolbox           |
|  \\    /   O peration     | Version:  2206                                  |
|   \\  /    A nd           | Website:  www.openfoam.com                      |
|    \\/     M anipulation  |                                                 |
\*---------------------------------------------------------------------------*/
FoamFile
{
    version     2.0;
    format      ascii;
    arch        "LSB;label=32;scalar=64";
    class       surfaceScalarField;
    location    "0.2";
    object      phi;
}
// * * * * * * * * * * * * * * * * * * * * * * * * * * * * * * * * * * * * * //

dimensions      [0 3 -1 0 0 0 0];

oriented        oriented;

internalField   nonuniform List<scalar> 
3650
(
0.00275105
0.000448951
0.00225655
0.000494502
0.00184644
0.000410109
0.00154289
0.000303545
0.00133878
0.000204118
0.00121252
0.00012626
0.00113828
7.42355e-05
0.00109692
4.1361e-05
0.00107498
2.19389e-05
0.00106383
1.11465e-05
0.00105849
5.34741e-06
0.00105622
2.26567e-06
0.00105562
6.08799e-07
0.00105597
-3.53111e-07
0.00105695
-9.7575e-07
0.00105847
-1.52174e-06
0.00106049
-2.02494e-06
0.00106299
-2.49844e-06
0.00106591
-2.91403e-06
0.00106919
-3.28196e-06
0.0010727
-3.51518e-06
0.00107625
-3.55228e-06
0.00107973
-3.47539e-06
0.00108288
-3.14861e-06
0.00108566
-2.78678e-06
0.0010882
-2.54666e-06
0.00109069
-2.48588e-06
0.00109324
-2.55573e-06
0.00109584
-2.59566e-06
0.00109819
-2.35342e-06
0.00109976
-1.56727e-06
0.00110029
-5.35017e-07
0.00109967
6.19295e-07
0.00109799
1.67763e-06
0.00109541
2.58663e-06
0.00109207
3.34277e-06
0.00108819
3.88426e-06
0.00108402
4.16467e-06
0.0010798
4.22504e-06
0.0010757
4.10288e-06
0.00107182
3.87274e-06
0.00106819
3.63109e-06
0.00106488
3.31076e-06
0.00106192
2.95891e-06
0.00105932
2.60815e-06
0.00105704
2.27268e-06
0.00105508
1.9601e-06
0.00105341
1.66867e-06
0.00105201
1.40665e-06
0.00105084
1.17054e-06
0.00104987
9.65157e-07
0.00104908
7.90325e-07
0.00104844
6.44078e-07
0.00104792
5.22009e-07
0.0010475
4.21448e-07
0.00104716
3.38682e-07
0.00104689
2.71517e-07
0.00104667
2.16941e-07
0.0010465
1.72873e-07
0.00104636
1.36925e-07
0.00104625
1.08288e-07
0.00104617
8.52633e-08
0.0010461
6.70651e-08
0.00104605
5.24681e-08
0.00104601
4.10167e-08
0.00104597
3.17238e-08
0.00104595
2.45053e-08
0.00104593
1.87185e-08
0.00104592
1.43167e-08
0.00104591
1.07115e-08
0.0010459
7.87822e-09
0.00104589
5.39134e-09
0.00104589
3.37697e-09
0.00104589
1.75516e-09
-8.59658e-11
0.00336368
0.000285268
0.00335048
0.000507707
0.00324505
0.000515535
0.00309588
0.000452722
0.00293665
0.000363339
0.00279743
0.000265488
0.0026922
0.000179466
0.00261934
0.000114217
0.00257119
7.00852e-05
0.00254018
4.21563e-05
0.00252043
2.5099e-05
0.00250779
1.49072e-05
0.00249948
8.92572e-06
0.00249373
5.39279e-06
0.00248953
3.22859e-06
0.00248616
1.8441e-06
0.00248315
9.83679e-07
0.0024801
5.58342e-07
0.0024766
5.82592e-07
0.00247222
1.09957e-06
0.00246646
2.24359e-06
0.00245878
4.1302e-06
0.00244859
6.71114e-06
0.00243575
9.69254e-06
0.00242064
1.23182e-05
0.00240436
1.3735e-05
0.00238861
1.32593e-05
0.00237543
1.06286e-05
0.00236672
6.11281e-06
0.00236337
9.94237e-07
0.00236469
-2.88571e-06
0.00236977
-5.61885e-06
0.00237806
-7.67498e-06
0.00238895
-9.20709e-06
0.00240152
-9.98165e-06
0.0024147
-9.83851e-06
0.00242754
-8.95105e-06
0.00243932
-7.61723e-06
0.00244964
-6.09902e-06
0.00245828
-4.52791e-06
0.00246517
-3.02263e-06
0.0024705
-1.69443e-06
0.00247442
-6.16701e-07
0.00247718
2.05701e-07
0.002479
7.86591e-07
0.00248012
1.15437e-06
0.00248073
1.348e-06
0.002481
1.39657e-06
0.00248106
1.35466e-06
0.00248097
1.25729e-06
0.0024808
1.1332e-06
0.00248059
9.97265e-07
0.00248038
8.61512e-07
0.00248017
7.33269e-07
0.00247997
6.17416e-07
0.0024798
5.13519e-07
0.00247964
4.2452e-07
0.00247951
3.49295e-07
0.0024794
2.85434e-07
0.0024793
2.31746e-07
0.00247922
1.87205e-07
0.00247916
1.5052e-07
0.00247911
1.20426e-07
0.00247906
9.58299e-08
0.00247903
7.58729e-08
0.002479
5.96238e-08
0.00247898
4.65788e-08
0.00247896
3.612e-08
0.00247895
2.77487e-08
0.00247894
2.09529e-08
0.00247893
1.53164e-08
0.00247892
1.05688e-08
0.00247892
6.40106e-09
0.00247892
3.07547e-09
-5.289e-10
0.00332703
0.000158234
0.00345486
0.000379887
0.00351801
0.000452377
0.00352874
0.000441994
0.00349926
0.000392816
0.0034464
0.000318354
0.00338591
0.000239952
0.00332987
0.00017026
0.00328388
0.000116074
0.00324867
7.73628e-05
0.00322297
5.08036e-05
0.00320455
3.33244e-05
0.00319127
2.22122e-05
0.00318141
1.5248e-05
0.00317382
1.0821e-05
0.00316759
8.08009e-06
0.00316196
6.6081e-06
0.00315632
6.20459e-06
0.00315005
6.84719e-06
0.00314256
8.58577e-06
0.00313308
1.17322e-05
0.00312059
1.66196e-05
0.00310409
2.32091e-05
0.00308291
3.0866e-05
0.00305748
3.77477e-05
0.00302951
4.17078e-05
0.00300159
4.11817e-05
0.00297706
3.51499e-05
0.00295953
2.36418e-05
0.00295088
9.65054e-06
0.00294942
-1.42895e-06
0.0029531
-9.30199e-06
0.00296138
-1.59552e-05
0.00297431
-2.21404e-05
0.00299124
-2.69066e-05
0.00301098
-2.95717e-05
0.00303213
-3.01087e-05
0.00305335
-2.88329e-05
0.00307345
-2.61966e-05
0.00309152
-2.25943e-05
0.00310705
-1.85518e-05
0.00311993
-1.45747e-05
0.00313031
-1.09951e-05
0.00313844
-7.92438e-06
0.00314465
-5.43028e-06
0.00314931
-3.50748e-06
0.00315275
-2.08972e-06
0.00315524
-1.09472e-06
0.00315703
-4.28343e-07
0.00315829
-2.5255e-09
0.00315917
2.54303e-07
0.00315977
3.93549e-07
0.00316018
4.53691e-07
0.00316045
4.64194e-07
0.00316062
4.46833e-07
0.00316072
4.09988e-07
0.00316078
3.63972e-07
0.00316081
3.19405e-07
0.00316082
2.74335e-07
0.00316082
2.32456e-07
0.00316082
1.94776e-07
0.0031608
1.61708e-07
0.00316079
1.33231e-07
0.00316078
1.08662e-07
0.00316077
8.78635e-08
0.00316076
7.03964e-08
0.00316075
5.59893e-08
0.00316074
4.40962e-08
0.00316073
3.42896e-08
0.00316073
2.6062e-08
0.00316072
1.90658e-08
0.00316072
1.30603e-08
0.00316072
7.72536e-09
0.00316072
3.19253e-09
-1.65367e-09
0.00326374
9.44898e-05
0.00338518
0.000258447
0.00348682
0.000350742
0.00355257
0.000376243
0.00358606
0.000359331
0.00358996
0.000314454
0.00357403
0.00025588
0.00354952
0.000194771
0.00352324
0.00014235
0.00349873
0.000101877
0.0034779
7.16349e-05
0.00346122
4.99993e-05
0.00344818
3.52613e-05
0.00343797
2.54565e-05
0.00342999
1.8804e-05
0.00342355
1.45203e-05
0.00341796
1.2189e-05
0.00341265
1.15192e-05
0.00340702
1.24772e-05
0.00340038
1.52216e-05
0.00339181
2.03084e-05
0.00337999
2.84362e-05
0.00336335
3.98559e-05
0.00334054
5.36696e-05
0.00331241
6.58716e-05
0.00328208
7.20462e-05
0.00325323
7.00232e-05
0.00323014
5.82407e-05
0.00321691
3.6877e-05
0.00321448
1.20812e-05
0.00321667
-3.62455e-06
0.00321824
-1.08767e-05
0.00321934
-1.70495e-05
0.00322289
-2.56952e-05
0.00323068
-3.46944e-05
0.00324347
-4.23559e-05
0.00326067
-4.73132e-05
0.00328088
-4.90393e-05
0.00330224
-4.75539e-05
0.00332294
-4.32979e-05
0.00334167
-3.72841e-05
0.0033577
-3.05954e-05
0.00337088
-2.41815e-05
0.00338142
-1.8461e-05
0.00338966
-1.36667e-05
0.003396
-9.85114e-06
0.00340083
-6.91856e-06
0.00340446
-4.72828e-06
0.00340718
-3.14214e-06
0.00340919
-2.01485e-06
0.00341067
-1.2262e-06
0.00341175
-6.85767e-07
0.00341253
-3.27187e-07
0.00341309
-9.78812e-08
0.0034135
4.31916e-08
0.00341378
1.23416e-07
0.00341398
1.6358e-07
0.00341412
1.78653e-07
0.00341422
1.77341e-07
0.00341429
1.66565e-07
0.00341433
1.50891e-07
0.00341436
1.32509e-07
0.00341438
1.15023e-07
0.00341439
9.75455e-08
0.0034144
8.14871e-08
0.0034144
6.71004e-08
0.0034144
5.46879e-08
0.0034144
4.39295e-08
0.0034144
3.46682e-08
0.0034144
2.65486e-08
0.0034144
1.94123e-08
0.0034144
1.30868e-08
0.0034144
7.34721e-09
0.0034144
2.22196e-09
-3.31844e-09
0.00323362
6.08722e-05
0.00331341
0.000178656
0.00340199
0.000262165
0.00347699
0.000301238
0.0035317
0.000304626
0.00356367
0.000282476
0.0035759
0.00024365
0.00357391
0.000196769
0.00356499
0.000151267
0.0035532
0.000113666
0.00354111
8.37269e-05
0.00353025
6.08629e-05
0.00352118
4.43246e-05
0.00351384
3.28023e-05
0.00350793
2.47184e-05
0.00350316
1.92867e-05
0.00349914
1.62073e-05
0.00349556
1.51038e-05
0.00349211
1.5928e-05
0.00348816
1.91684e-05
0.00348276
2.57107e-05
0.00347442
3.6774e-05
0.00346104
5.32326e-05
0.00344043
7.42867e-05
0.00341653
8.97634e-05
0.00339703
9.15425e-05
0.00338645
8.06052e-05
0.00338962
5.5072e-05
0.00340793
1.857e-05
0.00343526
-1.52527e-05
0.00345012
-1.84803e-05
0.00344577
-6.52945e-06
0.00342566
3.06222e-06
0.00340102
-1.05373e-06
0.00338016
-1.3834e-05
0.00336793
-3.01286e-05
0.00336625
-4.56298e-05
0.00337369
-5.64805e-05
0.00338752
-6.13835e-05
0.00340412
-5.9897e-05
0.00342111
-5.42781e-05
0.00343649
-4.5968e-05
0.00344937
-3.70599e-05
0.00345974
-2.88338e-05
0.0034679
-2.18258e-05
0.00347422
-1.61725e-05
0.00347907
-1.17645e-05
0.00348275
-8.40909e-06
0.00348553
-5.92159e-06
0.00348762
-4.10737e-06
0.00348919
-2.79391e-06
0.00349035
-1.85186e-06
0.00349122
-1.19114e-06
0.00349186
-7.36632e-07
0.00349233
-4.28053e-07
0.00349267
-2.2206e-07
0.00349292
-8.7997e-08
0.00349311
-4.14146e-09
0.00349324
4.52402e-08
0.00349333
7.15968e-08
0.0034934
8.30013e-08
0.00349345
8.47619e-08
0.00349348
8.09946e-08
0.00349351
7.37865e-08
0.00349352
6.50475e-08
0.00349354
5.57234e-08
0.00349354
4.70713e-08
0.00349355
3.88005e-08
0.00349355
3.11325e-08
0.00349356
2.40327e-08
0.00349356
1.74763e-08
0.00349356
1.14551e-08
0.00349356
5.84409e-09
0.00349356
5.79944e-10
-5.18262e-09
0.00321892
4.19562e-05
0.00327028
0.000127292
0.0033364
0.000196043
0.00340125
0.00023639
0.0034565
0.000249375
0.00349835
0.000240624
0.00352601
0.000215998
0.00354037
0.000182407
0.00354504
0.000146597
0.00354441
0.000114292
0.00354109
8.70505e-05
0.00353668
6.52678e-05
0.00353219
4.88149e-05
0.00352828
3.67155e-05
0.00352504
2.79612e-05
0.00352258
2.17429e-05
0.00352085
1.79405e-05
0.00351972
1.62333e-05
0.00351912
1.65319e-05
0.00351878
1.9506e-05
0.00351812
2.63773e-05
0.00351572
3.91665e-05
0.00350911
5.98488e-05
0.0034963
8.70978e-05
0.0034897
9.63579e-05
0.00349964
8.1608e-05
0.00353726
4.29862e-05
0.00360378
-1.14509e-05
0.00368749
-6.51377e-05
0.00375176
-7.95228e-05
0.00376553
-3.2247e-05
0.00374406
1.49406e-05
0.00369304
5.40758e-05
0.003626
6.59881e-05
0.00355954
5.26255e-05
0.00350181
2.75966e-05
0.00346313
-6.94675e-06
0.00344451
-3.78608e-05
0.0034413
-5.81721e-05
0.00344753
-6.61273e-05
0.00345753
-6.42728e-05
0.00346873
-5.71703e-05
0.00347893
-4.72646e-05
0.00348735
-3.72489e-05
0.003494
-2.84765e-05
0.00349915
-2.13192e-05
0.00350308
-1.57002e-05
0.00350608
-1.14021e-05
0.00350834
-8.18577e-06
0.00351005
-5.81731e-06
0.00351134
-4.0843e-06
0.00351231
-2.82368e-06
0.00351304
-1.92198e-06
0.00351359
-1.28658e-06
0.00351401
-8.41261e-07
0.00351432
-5.31174e-07
0.00351455
-3.18049e-07
0.00351472
-1.75251e-07
0.00351485
-8.19806e-08
0.00351494
-2.27227e-08
0.00351501
1.33688e-08
0.00351506
3.37399e-08
0.0035151
4.35341e-08
0.00351513
4.64387e-08
0.00351515
4.51071e-08
0.00351516
4.14501e-08
0.00351517
3.66408e-08
0.00351518
3.12528e-08
0.00351518
2.5579e-08
0.00351519
1.98752e-08
0.00351519
1.42836e-08
0.00351519
8.92531e-09
0.0035152
3.75012e-09
0.0035152
-1.32686e-09
-6.94852e-09
0.00321174
3.02199e-05
0.00324648
9.2546e-05
0.00329574
0.000146782
0.00334889
0.000183244
0.00339869
0.000199571
0.00344105
0.000198263
0.00347385
0.000183198
0.00349681
0.000159447
0.00351114
0.000132275
0.00351936
0.000106064
0.00352345
8.29649e-05
0.00352496
6.37619e-05
0.0035252
4.85708e-05
0.00352494
3.69798e-05
0.00352459
2.83128e-05
0.00352447
2.18659e-05
0.0035249
1.75096e-05
0.0035262
1.49253e-05
0.00352868
1.40546e-05
0.00353268
1.55048e-05
0.00353831
2.07487e-05
0.00354483
3.26492e-05
0.00355049
5.41896e-05
0.0035558
8.17856e-05
0.00357397
7.81973e-05
0.00361909
3.648e-05
0.00369414
-3.2062e-05
0.00376862
-8.59243e-05
0.00224637
1.70611e-18
0.00127181
1.21339e-18
0.000926239
8.72573e-19
0.00126467
7.59124e-19
0.00222095
7.97159e-19
0.00372672
5.05991e-19
0.00370342
7.5923e-05
0.00363891
9.2102e-05
0.00357176
6.02063e-05
0.00352286
1.10461e-05
0.00349727
-3.25853e-05
0.00348852
-5.73772e-05
0.0034885
-6.42578e-05
0.00349245
-6.11163e-05
0.00349792
-5.2734e-05
0.00350297
-4.23016e-05
0.00350706
-3.25616e-05
0.00351025
-2.4505e-05
0.00351269
-1.81445e-05
0.00351456
-1.32681e-05
0.00351597
-9.60493e-06
0.00351705
-6.89243e-06
0.00351787
-4.90124e-06
0.00351849
-3.44911e-06
0.00351897
-2.4013e-06
0.00351934
-1.65341e-06
0.00351962
-1.12189e-06
0.00351983
-7.45894e-07
0.00352
-4.82493e-07
0.00352012
-3.01532e-07
0.00352022
-1.78802e-07
0.0035203
-9.6782e-08
0.00352035
-4.31553e-08
0.00352039
-9.29352e-09
0.00352043
1.08069e-08
0.00352045
2.16235e-08
0.00352047
2.63437e-08
0.00352049
2.73326e-08
0.0035205
2.59784e-08
0.0035205
2.31558e-08
0.00352051
1.93902e-08
0.00352052
1.50965e-08
0.00352052
1.05769e-08
0.00352052
6.0264e-09
0.00352052
1.49517e-09
0.00352053
-3.16557e-09
-8.38502e-09
0.00320819
2.20305e-05
0.00323318
6.75511e-05
0.00327103
0.000108934
0.00331488
0.000139395
0.00335893
0.000155522
0.00339928
0.000157912
0.00343346
0.000149025
0.00346038
0.000132523
0.00348024
0.000112416
0.00349425
9.20533e-05
0.00350379
7.34305e-05
0.00351008
5.74664e-05
0.00351424
4.44169e-05
0.0035171
3.41117e-05
0.00351934
2.60775e-05
0.00352138
1.98296e-05
0.0035238
1.50917e-05
0.00352725
1.14686e-05
0.00353253
8.77677e-06
0.00354089
7.14537e-06
0.00355365
7.98814e-06
0.0035715
1.48059e-05
0.0035936
3.20898e-05
0.00361065
6.4737e-05
0.00362194
6.69048e-05
0.00364989
8.53947e-06
0.00260004
-2.48987e-05
4.91969e-18
1.29374e-18
2.68709e-18
-7.65444e-21
1.29906e-18
4.10588e-21
1.19912e-18
1.78233e-20
1.4187e-18
4.00109e-20
1.68581e-18
6.85648e-20
2.76522e-18
1.97378e-19
0.00263461
2.91793e-19
0.00367206
5.2763e-05
0.00363758
9.46873e-05
0.00358912
5.95061e-05
0.00355133
5.21056e-06
0.00353051
-3.65571e-05
0.00352104
-5.47885e-05
0.00351722
-5.72959e-05
0.00351647
-5.19872e-05
0.00351704
-4.28706e-05
0.00351786
-3.33788e-05
0.00351859
-2.52344e-05
0.00351918
-1.8738e-05
0.00351965
-1.37419e-05
0.00352003
-9.98332e-06
0.00352034
-7.19649e-06
0.00352058
-5.14913e-06
0.00352079
-3.65516e-06
0.00352096
-2.57292e-06
0.0035211
-1.7949e-06
0.00352122
-1.2385e-06
0.00352132
-8.4241e-07
0.0035214
-5.62736e-07
0.00352146
-3.67736e-07
0.00352152
-2.3275e-07
0.00352156
-1.40504e-07
0.0035216
-7.86201e-08
0.00352162
-3.81189e-08
0.00352165
-1.24591e-08
0.00352167
2.88893e-09
0.00352168
1.14263e-08
0.00352169
1.55532e-08
0.0035217
1.66814e-08
0.00352171
1.57419e-08
0.00352172
1.34769e-08
0.00352172
1.03979e-08
0.00352172
6.89195e-09
0.00352173
3.17352e-09
0.00352173
-6.40094e-10
0.00352173
-4.70976e-09
-9.31316e-09
0.00320626
1.57671e-05
0.00322549
4.83276e-05
0.00325575
7.86704e-05
0.00329284
0.000102304
0.00333214
0.00011622
0.00337009
0.000119968
0.00340415
0.000114965
0.00343286
0.000103812
0.00345582
8.94521e-05
0.0034735
7.43717e-05
0.00348675
6.01836e-05
0.0034965
4.77193e-05
0.00350365
3.72645e-05
0.00350902
2.87453e-05
0.00351326
2.18363e-05
0.00351693
1.61614e-05
0.00352068
1.13433e-05
0.00352534
6.80959e-06
0.00353214
1.97165e-06
0.00354321
-3.92247e-06
0.003561
-9.80159e-06
0.00358678
-1.09699e-05
0.003615
3.87633e-06
0.00362195
5.77846e-05
0.00359686
9.19985e-05
0.00269454
2.37047e-05
4.18377e-18
9.26059e-19
1.1837e-18
-3.52437e-21
4.67868e-20
-1.62814e-22
6.62684e-20
-4.65655e-22
1.52722e-19
6.75003e-21
3.16921e-19
1.90624e-20
6.40711e-19
1.85702e-20
1.42963e-18
3.83873e-20
2.80951e-18
1.2445e-19
0.00279705
2.19396e-19
0.00363963
6.46221e-05
0.00362061
7.85264e-05
0.00359098
3.4838e-05
0.00356739
-1.29656e-05
0.0035517
-3.9098e-05
0.00354174
-4.73393e-05
0.0035353
-4.55451e-05
0.00353115
-3.87188e-05
0.00352838
-3.0609e-05
0.00352643
-2.32865e-05
0.00352503
-1.73337e-05
0.00352401
-1.27277e-05
0.00352329
-9.25877e-06
0.00352278
-6.68734e-06
0.00352243
-4.79907e-06
0.0035222
-3.42159e-06
0.00352204
-2.42249e-06
0.00352195
-1.70213e-06
0.0035219
-1.18521e-06
0.00352187
-8.16062e-07
0.00352186
-5.53974e-07
0.00352187
-3.69509e-07
0.00352187
-2.40701e-07
0.00352188
-1.5171e-07
0.0035219
-9.12924e-08
0.00352191
-5.10028e-08
0.00352192
-2.46722e-08
0.00352193
-8.17428e-09
0.00352194
1.61932e-09
0.00352195
7.07642e-09
0.00352196
9.47788e-09
0.00352196
9.6388e-09
0.00352197
8.36047e-09
0.00352197
6.20724e-09
0.00352198
3.56697e-09
0.00352198
6.45132e-10
0.00352198
-2.44072e-09
0.00352198
-5.8053e-09
-9.64006e-09
0.00320514
1.06315e-05
0.00322091
3.25496e-05
0.00324626
5.33236e-05
0.00327856
7.00074e-05
0.0033143
8.04766e-05
0.00335018
8.40864e-05
0.00338365
8.1497e-05
0.00341309
7.43764e-05
0.00343776
6.47739e-05
0.00345771
5.44222e-05
0.00347342
4.44824e-05
0.00348555
3.55868e-05
0.00349484
2.79723e-05
0.00350198
2.16043e-05
0.00350756
1.62572e-05
0.00351211
1.1613e-05
0.0035162
7.25429e-06
0.00352054
2.46874e-06
0.00352629
-3.77961e-06
0.00353515
-1.27771e-05
0.00354884
-2.34882e-05
0.0035682
-3.03291e-05
0.00359112
-1.90388e-05
0.00358841
6.05017e-05
0.00354777
0.000132636
5.23191e-18
1.46754e-05
1.65468e-18
5.33297e-20
3.50139e-20
-1.2758e-22
3.52771e-20
0
3.69007e-20
1.07382e-25
8.19378e-20
1.24069e-20
1.42219e-19
1.00081e-20
3.05675e-19
1.36178e-20
7.47294e-19
1.96642e-20
1.43897e-18
4.94809e-20
2.80391e-18
5.11588e-20
0.003609
1.24174e-05
0.00361772
6.98108e-05
0.00360858
4.39809e-05
0.00359228
3.33142e-06
0.00357645
-2.32654e-05
0.00356309
-3.39839e-05
0.00355242
-3.48755e-05
0.00354427
-3.05654e-05
0.00353817
-2.45133e-05
0.00353366
-1.87731e-05
0.00353034
-1.40092e-05
0.0035279
-1.02951e-05
0.00352614
-7.49228e-06
0.00352486
-5.41518e-06
0.00352396
-3.89118e-06
0.00352331
-2.7802e-06
0.00352287
-1.97435e-06
0.00352256
-1.3927e-06
0.00352235
-9.74675e-07
0.00352221
-6.75541e-07
0.00352211
-4.62518e-07
0.00352206
-3.11831e-07
0.00352202
-2.06113e-07
0.003522
-1.32683e-07
0.00352199
-8.24518e-08
0.00352199
-4.85817e-08
0.00352199
-2.62124e-08
0.003522
-1.18551e-08
0.003522
-3.10854e-09
0.00352201
1.95166e-09
0.00352201
4.41439e-09
0.00352202
4.94847e-09
0.00352202
4.19518e-09
0.00352202
2.68205e-09
0.00352203
7.41072e-10
0.00352203
-1.45376e-09
0.00352203
-3.82906e-09
0.00352203
-6.41816e-09
-9.4029e-09
0.00320448
6.14931e-06
0.00321822
1.88144e-05
0.0032406
3.09456e-05
0.00326973
4.08694e-05
0.00330291
4.73031e-05
0.00333721
4.97861e-05
0.00337009
4.8611e-05
0.0033998
4.46735e-05
0.00342541
3.91647e-05
0.00344671
3.31219e-05
0.00346395
2.72427e-05
0.00347762
2.19153e-05
0.0034883
1.7291e-05
0.00349655
1.33533e-05
0.00350285
9.95889e-06
0.00350759
6.87775e-06
0.00351109
3.74627e-06
0.00351357
-3.45845e-09
0.00351497
-5.18018e-06
0.00351641
-1.42144e-05
0.00351971
-2.67874e-05
0.00352601
-3.66287e-05
0.00352232
-1.53441e-05
0.00353145
5.13763e-05
0.00354212
0.000121961
3.65963e-18
9.28309e-19
7.11738e-19
1.88703e-20
3.48704e-20
0
3.35295e-20
0
4.01798e-20
0
3.9e-20
-1.30645e-22
8.75929e-20
-1.60259e-21
1.94333e-19
-8.0538e-22
4.29505e-19
1.71946e-20
8.57719e-19
-1.37836e-21
2.1337e-18
-5.17427e-23
0.00356922
1.06188e-19
0.00359787
4.11613e-05
0.00360899
3.28575e-05
0.00360502
7.30277e-06
0.00359323
-1.14816e-05
0.00357924
-1.99928e-05
0.003566
-2.16287e-05
0.00355491
-1.94774e-05
0.00354618
-1.57886e-05
0.00353957
-1.21567e-05
0.00353465
-9.09218e-06
0.00353104
-6.68736e-06
0.00352842
-4.86763e-06
0.00352652
-3.51864e-06
0.00352516
-2.52942e-06
0.00352419
-1.8086e-06
0.0035235
-1.28597e-06
0.00352301
-9.08663e-07
0.00352268
-6.37389e-07
0.00352244
-4.43054e-07
0.00352229
-3.04449e-07
0.00352218
-2.06154e-07
0.00352211
-1.37057e-07
0.00352207
-8.90326e-08
0.00352204
-5.60945e-08
0.00352203
-3.38469e-08
0.00352202
-1.90376e-08
0.00352202
-9.47309e-09
0.00352202
-3.61259e-09
0.00352202
-3.15161e-10
0.00352202
1.24136e-09
0.00352203
1.4746e-09
0.00352203
8.48874e-10
0.00352203
-2.59534e-10
0.00352203
-1.647e-09
0.00352204
-3.18914e-09
0.00352204
-4.81649e-09
0.00352204
-6.62194e-09
-8.74702e-09
0.00320411
2.03924e-06
0.00321675
6.17833e-06
0.00323752
1.0171e-05
0.00326492
1.34752e-05
0.00329659
1.56308e-05
0.00332988
1.64922e-05
0.00336234
1.61511e-05
0.00339213
1.48885e-05
0.0034182
1.30906e-05
0.00344022
1.11033e-05
0.0034583
9.15871e-06
0.00347283
7.38724e-06
0.00348428
5.83998e-06
0.00349312
4.51223e-06
0.00349973
3.35471e-06
0.00350432
2.28588e-06
0.00350692
1.14737e-06
0.00350713
-2.13539e-07
0.00350409
-2.13904e-06
0.00349515
-5.27196e-06
0.0034777
-9.33641e-06
0.00345225
-1.11702e-05
0.0034367
2.05331e-07
0.00346029
2.77949e-05
5.59352e-18
2.54486e-05
1.55275e-18
4.58339e-20
3.4682e-20
0
3.47433e-20
0
3.43448e-20
0
3.6538e-20
0
3.46451e-20
-4.80552e-24
7.04682e-20
-2.68389e-22
1.72216e-19
1.0346e-20
3.13589e-19
-5.25619e-22
7.02606e-19
-9.88126e-23
1.76564e-18
4.30112e-20
2.79177e-18
6.73455e-21
0.00358662
1.13406e-05
0.00360722
1.22574e-05
0.00361092
3.59886e-06
0.00360261
-3.16431e-06
0.00358898
-6.36434e-06
0.00357457
-7.22392e-06
0.00356173
-6.63817e-06
0.00355137
-5.42884e-06
0.00354341
-4.1951e-06
0.00353746
-3.14053e-06
0.00353308
-2.31054e-06
0.0035299
-1.68093e-06
0.00352759
-1.21404e-06
0.00352593
-8.71743e-07
0.00352475
-6.22373e-07
0.0035239
-4.41743e-07
0.00352331
-3.11523e-07
0.00352289
-2.17994e-07
0.00352259
-1.51031e-07
0.00352239
-1.03252e-07
0.00352226
-6.93828e-08
0.00352217
-4.56765e-08
0.00352211
-2.94013e-08
0.00352207
-1.83755e-08
0.00352204
-1.10587e-08
0.00352203
-6.20601e-09
0.00352203
-3.17402e-09
0.00352202
-1.42237e-09
0.00352202
-7.04193e-10
0.00352203
-6.81153e-10
0.00352203
-1.15273e-09
0.00352203
-1.90506e-09
0.00352203
-2.77096e-09
0.00352204
-3.67985e-09
0.00352204
-4.60865e-09
0.00352204
-5.55579e-09
0.00352204
-6.62307e-09
-7.77218e-09
0.00320396
-1.92537e-06
0.00321622
-6.07767e-06
0.00323646
-1.00711e-05
0.00326333
-1.33958e-05
0.00329454
-1.55793e-05
0.00332751
-1.64718e-05
0.00335982
-1.6157e-05
0.00338962
-1.49129e-05
0.00341583
-1.31252e-05
0.00343808
-1.11411e-05
0.00345643
-9.19413e-06
0.00347123
-7.41564e-06
0.00348293
-5.85778e-06
0.00349196
-4.51651e-06
0.00349866
-3.34219e-06
0.0035032
-2.25277e-06
0.00350543
-1.08382e-06
0.00350491
3.08537e-07
0.00350047
2.30509e-06
0.00348968
5.51715e-06
0.00347078
9.57066e-06
0.00344829
1.1314e-05
0.00344851
-7.8767e-09
0.00350475
-2.84405e-05
5.36557e-18
-2.6599e-05
1.38255e-18
-4.67411e-20
3.46827e-20
0
3.47368e-20
0
3.43708e-20
0
3.65473e-20
0
3.17163e-20
4.80178e-24
7.89182e-20
2.68991e-22
1.27704e-19
-1.03419e-20
2.74855e-19
5.31208e-22
6.9665e-19
2.62632e-22
1.31251e-18
-5.37294e-20
2.68685e-18
-7.14153e-21
0.00357983
-1.16897e-05
0.00360456
-1.24712e-05
0.00361162
-3.46806e-06
0.00360504
3.42236e-06
0.00359206
6.61449e-06
0.00357742
7.41271e-06
0.00356404
6.74124e-06
0.00355315
5.46757e-06
0.00354473
4.2198e-06
0.00353843
3.163e-06
0.00353379
2.33068e-06
0.00353041
1.6994e-06
0.00352796
1.23119e-06
0.0035262
8.87865e-07
0.00352494
6.37763e-07
0.00352404
4.56122e-07
0.00352341
3.24596e-07
0.00352296
2.29689e-07
0.00352265
1.61512e-07
0.00352243
1.12824e-07
0.00352228
7.80844e-08
0.00352218
5.33457e-08
0.00352212
3.56905e-08
0.00352208
2.32202e-08
0.00352205
1.4492e-08
0.00352204
8.54188e-09
0.00352203
4.43556e-09
0.00352202
1.58787e-09
0.00352202
-5.02786e-10
0.00352203
-2.16897e-09
0.00352203
-3.48239e-09
0.00352203
-4.43834e-09
0.00352203
-5.10109e-09
0.00352203
-5.55621e-09
0.00352204
-5.87996e-09
0.00352204
-6.17216e-09
0.00352204
-6.42928e-09
-6.51679e-09
0.00320409
-6.01265e-06
0.00321675
-1.87376e-05
0.00323753
-3.08496e-05
0.00326492
-4.07934e-05
0.0032966
-4.72521e-05
0.00332989
-4.97653e-05
0.00336235
-4.86163e-05
0.00339213
-4.46971e-05
0.00341821
-3.91987e-05
0.00344022
-3.31593e-05
0.00345831
-2.72779e-05
0.00347284
-2.19441e-05
0.00348429
-1.73102e-05
0.00349313
-1.33601e-05
0.00349974
-9.9511e-06
0.00350434
-6.85252e-06
0.00350696
-3.69935e-06
0.0035072
7.4979e-08
0.00350421
5.29414e-06
0.00349535
1.43802e-05
0.00347791
2.70099e-05
0.00345226
3.69677e-05
0.00343612
1.61342e-05
0.00345842
-5.07349e-05
5.59126e-18
-0.000124979
1.5535e-18
-9.38688e-19
3.4682e-20
-1.9589e-20
3.47433e-20
0
3.43448e-20
0
3.65383e-20
0
3.46474e-20
1.30729e-22
7.04654e-20
1.60324e-21
1.72023e-19
8.06529e-22
3.1158e-19
-1.71608e-20
6.93e-19
1.51072e-21
1.76327e-18
4.96284e-22
2.79157e-18
-1.06242e-19
0.00358619
-4.10827e-05
0.00360647
-3.27502e-05
0.00361022
-7.21314e-06
0.00360211
1.15313e-05
0.00358868
2.00461e-05
0.00357441
2.16811e-05
0.00356165
1.95008e-05
0.00355132
1.57903e-05
0.00354338
1.21642e-05
0.00353744
9.10306e-06
0.00353307
6.70024e-06
0.00352989
4.88156e-06
0.00352759
3.53301e-06
0.00352593
2.54384e-06
0.00352474
1.82288e-06
0.0035239
1.29961e-06
0.0035233
9.21302e-07
0.00352288
6.48805e-07
0.00352259
4.53385e-07
0.00352239
3.13837e-07
0.00352225
2.14649e-07
0.00352216
1.44449e-07
0.0035221
9.50906e-08
0.00352207
6.07303e-08
0.00352204
3.71495e-08
0.00352203
2.12082e-08
0.00352202
1.05888e-08
0.00352202
3.60194e-09
0.00352202
-1.07027e-09
0.00352202
-4.2096e-09
0.00352203
-6.13405e-09
0.00352203
-7.16064e-09
0.00352203
-7.51216e-09
0.00352203
-7.46609e-09
0.00352204
-7.15606e-09
0.00352204
-6.74655e-09
0.00352204
-6.19642e-09
-5.28516e-09
0.00320446
-1.04744e-05
0.00321822
-3.24968e-05
0.00324061
-5.3234e-05
0.00326975
-6.99363e-05
0.00330292
-8.04277e-05
0.00333722
-8.40661e-05
0.00337011
-8.15017e-05
0.00339981
-7.4399e-05
0.00342542
-6.48065e-05
0.00344672
-5.44585e-05
0.00346396
-4.45172e-05
0.00347763
-3.5616e-05
0.00348831
-2.79937e-05
0.00349657
-2.1615e-05
0.00350288
-1.62577e-05
0.00350762
-1.15992e-05
0.00351115
-7.22735e-06
0.00351365
-2.42626e-06
0.00351511
3.84027e-06
0.00351665
1.28462e-05
0.00352016
2.34994e-05
0.00352679
3.03323e-05
0.00352377
1.91581e-05
0.00353372
-6.0682e-05
0.00354364
-0.000134899
3.67478e-18
-1.31561e-05
7.15929e-19
-5.27668e-20
3.48704e-20
1.29075e-22
3.35298e-20
0
4.01837e-20
-1.14461e-25
3.90065e-20
-1.24084e-20
8.7601e-20
-1.00073e-20
1.94301e-19
-1.3615e-20
4.29377e-19
-1.96642e-20
8.5776e-19
-4.94627e-20
2.13343e-18
-5.094e-20
0.00356917
-1.23719e-05
0.00359753
-6.94397e-05
0.00360853
-4.37482e-05
0.00360466
-3.35133e-06
0.00359299
2.32085e-05
0.00357911
3.3922e-05
0.00356595
3.48462e-05
0.00355488
3.05681e-05
0.00354616
2.45077e-05
0.00353955
1.87763e-05
0.00353463
1.40168e-05
0.00353103
1.03052e-05
0.00352841
7.50402e-06
0.00352651
5.42768e-06
0.00352515
3.9042e-06
0.00352418
2.79327e-06
0.00352349
1.98709e-06
0.00352301
1.40473e-06
0.00352267
9.85727e-07
0.00352244
6.85609e-07
0.00352228
4.71606e-07
0.00352218
3.19907e-07
0.00352211
2.12999e-07
0.00352206
1.38292e-07
0.00352204
8.67113e-08
0.00352202
5.16313e-08
0.00352202
2.80974e-08
0.00352201
1.26641e-08
0.00352202
2.72268e-09
0.00352202
-3.66078e-09
0.00352202
-7.58807e-09
0.00352202
-9.63445e-09
0.00352203
-1.04049e-08
0.00352203
-1.02796e-08
0.00352203
-9.61051e-09
0.00352203
-8.59203e-09
0.00352203
-7.39737e-09
0.00352203
-5.99809e-09
-4.13077e-09
0.00320514
-1.56121e-05
0.00322092
-4.8283e-05
0.00324628
-7.85865e-05
0.00327858
-0.000102238
0.00331432
-0.000116175
0.00335021
-0.000119949
0.00338367
-0.000114969
0.00341311
-0.000103834
0.00343779
-8.94827e-05
0.00345773
-7.4406e-05
0.00347343
-6.0217e-05
0.00348557
-4.77486e-05
0.00349486
-3.72875e-05
0.00350201
-2.87608e-05
0.00350759
-2.18443e-05
0.00351216
-1.61614e-05
0.00351626
-1.13349e-05
0.00352064
-6.79814e-06
0.00352644
-1.96384e-06
0.00353539
3.90328e-06
0.00354921
9.67321e-06
0.00356884
1.07034e-05
0.00359217
-4.17332e-06
0.00358986
-5.83703e-05
0.00354815
-9.31896e-05
5.235e-18
-2.18027e-05
1.65525e-18
-9.22572e-19
3.49876e-20
4.048e-21
3.52782e-20
1.63084e-22
3.69044e-20
4.65989e-22
8.1953e-20
-6.75164e-21
1.42248e-19
-1.90598e-20
3.05976e-19
-1.8582e-20
7.48682e-19
-3.84665e-20
1.43977e-18
-1.24405e-19
2.80408e-18
-2.1927e-19
0.00360882
-6.43881e-05
0.00361753
-7.81499e-05
0.00360844
-3.46596e-05
0.00359222
1.28657e-05
0.00357646
3.89666e-05
0.00356313
4.72506e-05
0.00355246
4.55201e-05
0.00354429
3.87343e-05
0.00353818
3.06204e-05
0.00353366
2.32979e-05
0.00353033
1.73455e-05
0.00352789
1.27396e-05
0.00352613
9.27097e-06
0.00352485
6.69964e-06
0.00352395
4.81151e-06
0.00352331
3.43385e-06
0.00352286
2.4345e-06
0.00352255
1.71356e-06
0.00352234
1.19589e-06
0.0035222
8.25791e-07
0.00352211
5.62658e-07
0.00352205
3.76987e-07
0.00352202
2.4693e-07
0.003522
1.56674e-07
0.00352199
9.50801e-08
0.00352199
5.36693e-08
0.00352199
2.61888e-08
0.00352199
8.51679e-09
0.003522
-2.51158e-09
0.003522
-9.23267e-09
0.00352201
-1.28998e-08
0.00352201
-1.43602e-08
0.00352202
-1.4396e-08
0.00352202
-1.35064e-08
0.00352202
-1.20598e-08
0.00352203
-1.02776e-08
0.00352203
-8.27954e-09
0.00352203
-5.99662e-09
-3.15563e-09
0.00320628
-2.18905e-05
0.0032255
-6.7507e-05
0.00325577
-0.000108856
0.00329287
-0.000139335
0.00333218
-0.000155482
0.00337012
-0.000157895
0.00340418
-0.000149029
0.00343289
-0.000132542
0.00345585
-0.000112444
0.00347353
-9.20847e-05
0.00348677
-7.34618e-05
0.00349652
-5.74948e-05
0.00350367
-4.44407e-05
0.00350904
-3.41306e-05
0.00351329
-2.60907e-05
0.00351697
-1.98399e-05
0.00352073
-1.5098e-05
0.00352541
-1.14787e-05
0.00353225
-8.80054e-06
0.00354335
-7.20111e-06
0.00356116
-8.13269e-06
0.00358694
-1.5073e-05
0.00361516
-3.23975e-05
0.00362158
-6.4787e-05
0.0035958
-6.74165e-05
0.00269414
-7.30126e-06
4.18278e-18
2.45013e-05
1.18389e-18
-1.29319e-18
4.68023e-20
7.56907e-21
6.62865e-20
-4.07887e-21
1.52794e-19
-1.78267e-20
3.17261e-19
-4.00309e-20
6.41282e-19
-6.85809e-20
1.43008e-18
-1.97434e-19
2.80979e-18
-2.91839e-19
0.00279702
-5.27313e-05
0.00363958
-9.44347e-05
0.00362064
-5.92114e-05
0.00359112
-5.14116e-06
0.00356755
3.64325e-05
0.00355184
5.46801e-05
0.00354183
5.72569e-05
0.00353535
5.20047e-05
0.00353117
4.29101e-05
0.00352839
3.34048e-05
0.00352643
2.52535e-05
0.00352502
1.8754e-05
0.00352401
1.37562e-05
0.00352328
9.9967e-06
0.00352277
7.20937e-06
0.00352242
5.16159e-06
0.00352219
3.66706e-06
0.00352204
2.58441e-06
0.00352194
1.8058e-06
0.00352189
1.24877e-06
0.00352187
8.51711e-07
0.00352186
5.70894e-07
0.00352186
3.7454e-07
0.00352187
2.38206e-07
0.00352188
1.44753e-07
0.00352189
8.18557e-08
0.00352191
4.02915e-08