/*--------------------------------*- C++ -*----------------------------------*\
| =========                 |                                                 |
| \\      /  F ield         | OpenFOAM: The Open Source CFD Toolbox           |
|  \\    /   O peration     | Version:  2206                                  |
|   \\  /    A nd           | Website:  www.openfoam.com                      |
|    \\/     M anipulation  |                                                 |
\*---------------------------------------------------------------------------*/
FoamFile
{
    version     2.0;
    format      ascii;
    arch        "LSB;label=32;scalar=64";
    class       surfaceVectorField;
    location    "0.2";
    object      Uf;
}
// * * * * * * * * * * * * * * * * * * * * * * * * * * * * * * * * * * * * * //

dimensions      [0 1 -1 0 0 0 0];

internalField   nonuniform List<vector> 
3650
(
(0.859703 0.0517082 0)
(0.902495 0.140297 0)
(0.705171 0.0819952 0)
(0.900785 0.154532 0)
(0.577012 0.0641029 0)
(0.846017 0.128159 0)
(0.482155 0.0346336 0)
(0.761859 0.0948577 0)
(0.418368 0.0161445 0)
(0.693068 0.0637869 0)
(0.378911 0.00740605 0)
(0.643644 0.0394564 0)
(0.355713 0.00310702 0)
(0.610178 0.0231986 0)
(0.342787 0.00103167 0)
(0.587998 0.0129253 0)
(0.335932 0.000118748 0)
(0.574081 0.00685591 0)
(0.332448 -0.000239919 0)
(0.565706 0.00348329 0)
(0.330778 -0.000367606 0)
(0.560731 0.00167107 0)
(0.33007 -0.00041164 0)
(0.55778 0.000708022 0)
(0.32988 -0.000440047 0)
(0.556028 0.00019025 0)
(0.32999 -0.00048529 0)
(0.554986 -0.000110347 0)
(0.330295 -0.000552777 0)
(0.554353 -0.000304922 0)
(0.330771 -0.000641172 0)
(0.553991 -0.000475545 0)
(0.331404 -0.000753949 0)
(0.553799 -0.000632794 0)
(0.332184 -0.000891634 0)
(0.553706 -0.000780764 0)
(0.333095 -0.00105054 0)
(0.553647 -0.000910635 0)
(0.334121 -0.00122179 0)
(0.553549 -0.00102561 0)
(0.335219 -0.00139143 0)
(0.553321 -0.00109849 0)
(0.33633 -0.0015394 0)
(0.552852 -0.00111009 0)
(0.337415 -0.00165678 0)
(0.552018 -0.00108606 0)
(0.338399 -0.00174008 0)
(0.550712 -0.00098394 0)
(0.339269 -0.00177153 0)
(0.548922 -0.000870867 0)
(0.340064 -0.00172351 0)
(0.546773 -0.000795832 0)
(0.340841 -0.00156899 0)
(0.5445 -0.000776837 0)
(0.341639 -0.00129371 0)
(0.542483 -0.000798666 0)
(0.34245 -0.000891371 0)
(0.541074 -0.000811143 0)
(0.343185 -0.000377996 0)
(0.540488 -0.000735443 0)
(0.343674 0.000182592 0)
(0.540706 -0.000489771 0)
(0.343841 0.000731927 0)
(0.541392 -0.000167193 0)
(0.343647 0.00121223 0)
(0.542524 0.00019353 0)
(0.343123 0.00156853 0)
(0.543958 0.000524261 0)
(0.342316 0.00178577 0)
(0.545563 0.000808321 0)
(0.341271 0.00187167 0)
(0.5472 0.00104462 0)
(0.340058 0.00184912 0)
(0.548739 0.00121383 0)
(0.338757 0.001745 0)
(0.550065 0.00130146 0)
(0.337437 0.00159021 0)
(0.551152 0.00132032 0)
(0.336155 0.00140994 0)
(0.551982 0.00128215 0)
(0.334945 0.00121798 0)
(0.552559 0.00121023 0)
(0.33381 0.00102814 0)
(0.55291 0.00113471 0)
(0.332776 0.000856455 0)
(0.553071 0.00103461 0)
(0.331851 0.000707918 0)
(0.553082 0.000924658 0)
(0.331036 0.00058067 0)
(0.552987 0.000815046 0)
(0.330326 0.000472403 0)
(0.552821 0.000710211 0)
(0.329714 0.000382207 0)
(0.552612 0.000612531 0)
(0.329192 0.00030851 0)
(0.552386 0.00052146 0)
(0.328753 0.000247446 0)
(0.552165 0.000439579 0)
(0.328387 0.000197205 0)
(0.551956 0.000365794 0)
(0.328085 0.000156541 0)
(0.551765 0.000301612 0)
(0.327838 0.000123807 0)
(0.551595 0.000246977 0)
(0.327637 9.76235e-05 0)
(0.551448 0.000201274 0)
(0.327474 7.68444e-05 0)
(0.551322 0.000163128 0)
(0.327343 6.04393e-05 0)
(0.551216 0.000131702 0)
(0.327237 4.74411e-05 0)
(0.551127 0.000105838 0)
(0.327152 3.71806e-05 0)
(0.551053 8.4849e-05 0)
(0.327084 2.90497e-05 0)
(0.550993 6.7794e-05 0)
(0.32703 2.26108e-05 0)
(0.550943 5.40229e-05 0)
(0.326987 1.75269e-05 0)
(0.550903 4.27891e-05 0)
(0.326954 1.35281e-05 0)
(0.55087 3.384e-05 0)
(0.326927 1.04112e-05 0)
(0.550844 2.66448e-05 0)
(0.326906 8.00123e-06 0)
(0.550822 2.09579e-05 0)
(0.32689 6.12359e-06 0)
(0.550806 1.63963e-05 0)
(0.326877 4.6566e-06 0)
(0.550792 1.28177e-05 0)
(0.326867 3.51925e-06 0)
(0.550782 9.91367e-06 0)
(0.326859 2.64739e-06 0)
(0.550774 7.65791e-06 0)
(0.326854 1.98422e-06 0)
(0.550767 5.84952e-06 0)
(0.326849 1.47365e-06 0)
(0.550762 4.47396e-06 0)
(0.326846 1.06737e-06 0)
(0.550758 3.34734e-06 0)
(0.326843 7.359e-07 0)
(0.550756 2.46194e-06 0)
(0.326842 4.62676e-07 0)
(0.550754 1.68479e-06 0)
(0.326841 2.511e-07 0)
(0.550752 1.0553e-06 0)
(0.32684 4.83314e-08 0)
(0.550752 5.48486e-07 0)
(0.550751 -2.68643e-08 0)
(1.05115 0.152717 0)
(1.01334 0.0891463 0)
(1.04702 0.176169 0)
(1.05504 0.158658 0)
(1.01408 0.156062 0)
(1.06548 0.161105 0)
(0.967461 0.124433 0)
(1.05069 0.141476 0)
(0.917705 0.0884648 0)
(1.02163 0.113543 0)
(0.874196 0.0567207 0)
(0.989854 0.0829651 0)
(0.841311 0.0339472 0)
(0.961698 0.0560831 0)
(0.818544 0.0192998 0)
(0.938541 0.0356929 0)
(0.803498 0.010576 0)
(0.921148 0.0219016 0)
(0.793808 0.00564002 0)
(0.908842 0.0131739 0)
(0.787635 0.00292302 0)
(0.900359 0.00784345 0)
(0.783685 0.00144485 0)
(0.894569 0.00465849 0)
(0.781086 0.000629361 0)
(0.890602 0.00278929 0)
(0.779291 0.000149003 0)
(0.887806 0.00168525 0)
(0.777977 -0.000166448 0)
(0.885738 0.00100893 0)
(0.776925 -0.000396183 0)
(0.884127 0.000576281 0)
(0.775985 -0.000571348 0)
(0.882754 0.0003074 0)
(0.77503 -0.000697807 0)
(0.881449 0.000174482 0)
(0.773937 -0.000767916 0)
(0.880059 0.00018206 0)
(0.772568 -0.000761237 0)
(0.878428 0.000343615 0)
(0.770769 -0.000648896 0)
(0.876376 0.000701122 0)
(0.768368 -0.000414946 0)
(0.873676 0.00129069 0)
(0.765185 -9.15373e-05 0)
(0.870064 0.00209723 0)
(0.761171 0.000227611 0)
(0.865314 0.00302892 0)
(0.75645 0.000422607 0)
(0.859382 0.00384944 0)
(0.751362 0.000397812 0)
(0.852568 0.00429218 0)
(0.746441 0.000125371 0)
(0.845409 0.00414352 0)
(0.742321 -0.000326997 0)
(0.838736 0.00332145 0)
(0.739599 -0.000779846 0)
(0.833504 0.00191025 0)
(0.738553 -0.0010185 0)
(0.830453 0.000310699 0)
(0.738964 -0.00103689 0)
(0.829645 -0.000901783 0)
(0.740553 -0.000923016 0)
(0.830367 -0.00175589 0)
(0.743144 -0.00071657 0)
(0.83248 -0.00239843 0)
(0.746546 -0.000458816 0)
(0.83579 -0.00287722 0)
(0.750474 -0.00015138 0)
(0.840109 -0.00311927 0)
(0.754594 0.000181633 0)
(0.84514 -0.00307453 0)
(0.758605 0.000489503 0)
(0.850504 -0.0027972 0)
(0.762287 0.000735877 0)
(0.855829 -0.00238039 0)
(0.765514 0.000915519 0)
(0.860839 -0.00190594 0)
(0.768211 0.00103385 0)
(0.865326 -0.00141497 0)
(0.770366 0.00109253 0)
(0.869163 -0.000944571 0)
(0.77203 0.0010989 0)
(0.872316 -0.000529508 0)
(0.773258 0.00106608 0)
(0.874826 -0.000192719 0)
(0.774118 0.00100533 0)
(0.876761 6.42814e-05 0)
(0.774687 0.000926486 0)
(0.878208 0.00024581 0)
(0.775037 0.00083787 0)
(0.879258 0.00036074 0)
(0.775228 0.000742675 0)
(0.880001 0.000421252 0)
(0.775313 0.000645603 0)
(0.880511 0.000436427 0)
(0.77533 0.000553172 0)
(0.880855 0.000423333 0)
(0.775303 0.000467634 0)
(0.881078 0.000392902 0)
(0.77525 0.000391118 0)
(0.881216 0.000354126 0)
(0.775186 0.00032451 0)
(0.881295 0.000311645 0)
(0.775118 0.000267287 0)
(0.881335 0.000269223 0)
(0.775052 0.000218516 0)
(0.881351 0.000229147 0)
(0.774991 0.000177557 0)
(0.881351 0.000192942 0)
(0.774936 0.00014371 0)
(0.881341 0.000160475 0)
(0.774888 0.000115939 0)
(0.881327 0.000132662 0)
(0.774847 9.3248e-05 0)
(0.881311 0.000109155 0)
(0.774812 7.46977e-05 0)
(0.881294 8.91981e-05 0)
(0.774782 5.96006e-05 0)
(0.881278 7.24206e-05 0)
(0.774758 4.73537e-05 0)
(0.881264 5.85014e-05 0)
(0.774737 3.74791e-05 0)
(0.881251 4.70376e-05 0)
(0.774721 2.95671e-05 0)
(0.881239 3.76331e-05 0)
(0.774707 2.32333e-05 0)
(0.88123 2.99468e-05 0)
(0.774696 1.81617e-05 0)
(0.881222 2.37103e-05 0)
(0.774688 1.41078e-05 0)
(0.881215 1.86324e-05 0)
(0.774681 1.08932e-05 0)
(0.88121 1.45559e-05 0)
(0.774675 8.35249e-06 0)
(0.881205 1.12875e-05 0)
(0.774671 6.34041e-06 0)
(0.881202 8.67147e-06 0)
(0.774668 4.71987e-06 0)
(0.881199 6.54779e-06 0)
(0.774666 3.38355e-06 0)
(0.881197 4.78639e-06 0)
(0.774664 2.24121e-06 0)
(0.881195 3.30274e-06 0)
(0.774663 1.30535e-06 0)
(0.881194 2.00033e-06 0)
(0.774663 4.4535e-07 0)
(0.881194 9.61084e-07 0)
(0.881194 -1.65281e-07 0)
(1.0397 0.110016 0)
(1.00933 0.0494482 0)
(1.07964 0.150679 0)
(1.04742 0.118715 0)
(1.09938 0.150207 0)
(1.08387 0.141368 0)
(1.10273 0.134148 0)
(1.1044 0.138123 0)
(1.09352 0.110582 0)
(1.10912 0.122755 0)
(1.077 0.08403 0)
(1.10502 0.0994858 0)
(1.0581 0.0592746 0)
(1.09415 0.074985 0)
(1.04058 0.0394167 0)
(1.08126 0.0532062 0)
(1.02621 0.025203 0)
(1.06892 0.0362733 0)
(1.01521 0.0157485 0)
(1.05852 0.0241759 0)
(1.00718 0.00975886 0)
(1.05023 0.0158761 0)
(1.00142 0.00609081 0)
(1.04391 0.0104139 0)
(0.997271 0.0038904 0)
(1.0392 0.00694132 0)
(0.994192 0.00256503 0)
(1.03567 0.00476498 0)
(0.991819 0.00175807 0)
(1.03296 0.00338155 0)
(0.98987 0.00128483 0)
(1.03081 0.00252503 0)
(0.988113 0.00105932 0)
(1.029 0.00206503 0)
(0.986348 0.00105919 0)
(1.02732 0.00193894 0)
(0.984391 0.00130027 0)
(1.0256 0.00213975 0)
(0.982051 0.00181907 0)
(1.02364 0.00268305 0)
(0.979086 0.00265764 0)
(1.02122 0.00366631 0)
(0.975184 0.00382379 0)
(1.01802 0.00519362 0)
(0.970027 0.00523495 0)
(1.01364 0.00725286 0)
(0.963411 0.00663885 0)
(1.00765 0.00964564 0)
(0.955464 0.00765434 0)
(0.999877 0.0117961 3.5035e-34)
(0.946721 0.00792303 0)
(0.990854 0.0130337 -3.51006e-34)
(0.937996 0.00718422 0)
(0.981464 0.0128693 0)
(0.930332 0.00536203 0)
(0.972884 0.0109843 0)
(0.924855 0.00280611 0)
(0.966462 0.00738805 0)
(0.922149 0.000344097 0)
(0.963202 0.00301579 0)
(0.921694 -0.0015419 0)
(0.962666 -0.000446548 0)
(0.922844 -0.00304909 0)
(0.963314 -0.00290687 0)
(0.925432 -0.00434612 0)
(0.964564 -0.00498601 0)
(0.929473 -0.00533208 0)
(0.966625 -0.00691888 0)
(0.934763 -0.00586474 0)
(0.969913 -0.0084083 0)
(0.94093 -0.00592712 0)
(0.974521 -0.00924117 0)
(0.947542 -0.00560125 0)
(0.980198 -0.00940897 0)
(0.954172 -0.00499948 0)
(0.986569 -0.00901029 0)
(0.960453 -0.00423362 0)
(0.993146 -0.00818644 0)
(0.966099 -0.00339988 0)
(0.999489 -0.00706072 0)
(0.970952 -0.00257828 0)
(1.00523 -0.00579745 0)
(0.974977 -0.00183063 0)
(1.01016 -0.00455459 0)
(0.97822 -0.00119702 0)
(1.01423 -0.00343596 0)
(0.980761 -0.00069361 0)
(1.01749 -0.00247637 0)
(0.982704 -0.000317662 0)
(1.02004 -0.00169696 0)
(0.984161 -5.41874e-05 0)
(1.02199 -0.00109609 0)
(0.985235 0.00011644 0)
(1.02347 -0.000653037 0)
(0.986014 0.000215512 0)
(1.02457 -0.0003421 0)
(0.986571 0.00026427 0)
(1.02537 -0.000133857 0)
(0.986965 0.000279682 0)
(1.02597 -7.8922e-07 0)
(0.98724 0.000273853 0)
(1.02639 7.94697e-05 0)
(0.987428 0.000255251 0)
(1.0267 0.000122984 0)
(0.987556 0.000230046 0)
(1.02691 0.000141779 0)
(0.98764 0.000202963 0)
(1.02707 0.000145061 0)
(0.987693 0.000175728 0)
(1.02717 0.000139635 0)
(0.987726 0.0001496 0)
(1.02724 0.000128121 0)
(0.987745 0.000126056 0)
(1.02729 0.000113741 0)
(0.987754 0.000105165 0)
(1.02733 9.98141e-05 0)
(0.987757 8.70088e-05 0)
(1.02735 8.57298e-05 0)
(0.987757 7.14403e-05 0)
(1.02736 7.26424e-05 0)
(0.987755 5.83063e-05 0)
(1.02737 6.08675e-05 0)
(0.987751 4.73206e-05 0)
(1.02737 5.05338e-05 0)
(0.987748 3.81493e-05 0)
(1.02737 4.16347e-05 0)
(0.987744 3.05523e-05 0)
(1.02737 3.39569e-05 0)
(0.98774 2.43011e-05 0)
(1.02737 2.74574e-05 0)
(0.987736 1.91887e-05 0)
(1.02737 2.19989e-05 0)
(0.987734 1.5044e-05 0)
(1.02737 1.74967e-05 0)
(0.987731 1.16855e-05 0)
(1.02737 1.37801e-05 0)
(0.987729 8.94741e-06 0)
(1.02737 1.07155e-05 0)
(0.987727 6.67699e-06 0)
(1.02736 8.14437e-06 0)
(0.987726 4.76684e-06 0)
(1.02736 5.95808e-06 0)
(0.987725 3.1183e-06 0)
(1.02736 4.08135e-06 0)
(0.987725 1.70589e-06 0)
(1.02736 2.41418e-06 0)
(0.987725 3.90131e-07 0)
(1.02736 9.97667e-07 0)
(1.02736 -5.16772e-07 0)
(1.01992 0.0665223 0)
(1.00422 0.0295281 0)
(1.05787 0.109892 0)
(1.02725 0.0807647 0)
(1.08963 0.12697 0)
(1.06189 0.109607 0)
(1.11018 0.124737 0)
(1.0895 0.117576 0)
(1.12064 0.110799 0)
(1.10736 0.112291 0)
(1.12186 0.0905107 0)
(1.1169 0.0982667 0)
(1.11688 0.0691814 0)
(1.11876 0.0799624 0)
(1.10922 0.0502896 0)
(1.11571 0.0608658 0)
(1.10101 0.0354963 0)
(1.11056 0.0444843 0)
(1.09335 0.0245778 0)
(1.10471 0.0318367 0)
(1.08684 0.0168106 0)
(1.09915 0.0223859 0)
(1.08163 0.0115103 0)
(1.09437 0.0156248 0)
(1.07755 0.0080006 0)
(1.0905 0.0110192 0)
(1.07436 0.00570903 0)
(1.08747 0.00795515 0)
(1.07187 0.00424263 0)
(1.08505 0.00587624 0)
(1.06986 0.0033834 0)
(1.08312 0.00453758 0)
(1.06811 0.00301497 0)
(1.08154 0.00380908 0)
(1.06645 0.00308321 0)
(1.08014 0.00359974 0)
(1.06469 0.00357583 0)
(1.0788 0.00389913 0)
(1.06262 0.00456431 0)
(1.07734 0.00475676 0)
(1.05994 0.00620504 0)
(1.07553 0.00634638 0)
(1.05625 0.00858504 0)
(1.07301 0.0088863 0)
(1.05105 0.0115809 0)
(1.06927 0.012455 0)
(1.04392 0.0146606 3.5035e-34)
(1.06361 0.0167718 0)
(1.03513 0.01697 -4.64745e-37)
(1.05578 0.0205849 3.5035e-34)
(1.02565 0.01774 -3.51006e-34)
(1.04733 0.0225144 -3.51006e-34)
(1.01664 0.0164089 0)
(1.03987 0.0218822 0)
(1.00942 0.0127478 0)
(1.03479 0.0182002 0)
(1.00528 0.00738101 0)
(1.03353 0.0115241 0)
(1.00452 0.00214028 0)
(1.03639 0.00377537 0)
(1.00521 -0.00167414 0)
(1.04035 -0.00113267 0)
(1.0057 -0.00448382 0)
(1.04163 -0.00339896 0)
(1.00604 -0.00710757 0)
(1.03995 -0.00532798 0)
(1.00715 -0.00958921 0)
(1.03645 -0.00802975 0)
(1.00959 -0.0114454 0)
(1.03351 -0.010842 0)
(1.01358 -0.0124718 0)
(1.03252 -0.0132362 0)
(1.01896 -0.0126926 0)
(1.03392 -0.0147854 0)
(1.02528 -0.0121861 0)
(1.03741 -0.0153248 0)
(1.03195 -0.0110752 0)
(1.04251 -0.0148606 0)
(1.03842 -0.0095543 0)
(1.04831 -0.0135306 0)
(1.04427 -0.00788849 0)
(1.05412 -0.0116513 0)
(1.04928 -0.00628404 0)
(1.05941 -0.00956105 0)
(1.0534 -0.0048365 0)
(1.06389 -0.00755672 0)
(1.05669 -0.00358656 0)
(1.06753 -0.00576905 0)
(1.05927 -0.00256076 0)
(1.0704 -0.00427084 0)
(1.06125 -0.00175795 0)
(1.07264 -0.00307848 0)
(1.06276 -0.00115642 0)
(1.07435 -0.00216205 0)
(1.06389 -0.000723176 0)
(1.07565 -0.00147759 0)
(1.06474 -0.000421473 0)
(1.07663 -0.000981918 0)
(1.06537 -0.000217503 0)
(1.07736 -0.000629641 0)
(1.06583 -8.38889e-05 0)
(1.07791 -0.000383187 0)
(1.06617 -5.60863e-08 0)
(1.07831 -0.000214302 0)
(1.06642 4.93584e-05 0)
(1.07861 -0.000102246 0)
(1.06659 7.58282e-05 0)
(1.07882 -3.05879e-05 0)
(1.06672 8.72874e-05 0)
(1.07898 1.34974e-05 0)
(1.06681 8.91604e-05 0)
(1.07909 3.85675e-05 0)
(1.06687 8.52839e-05 0)
(1.07918 5.11189e-05 0)
(1.06691 7.81875e-05 0)
(1.07924 5.58291e-05 0)
(1.06694 6.96538e-05 0)
(1.07928 5.5419e-05 0)
(1.06696 6.07554e-05 0)
(1.07931 5.20517e-05 0)
(1.06698 5.21394e-05 0)
(1.07933 4.71535e-05 0)
(1.06699 4.41203e-05 0)
(1.07934 4.14092e-05 0)
(1.06699 3.68386e-05 0)
(1.07935 3.59448e-05 0)
(1.067 3.03968e-05 0)
(1.07936 3.0483e-05 0)
(1.067 2.48021e-05 0)
(1.07936 2.54647e-05 0)
(1.067 2.00393e-05 0)
(1.07936 2.09689e-05 0)
(1.067 1.6032e-05 0)
(1.07937 1.709e-05 0)
(1.067 1.26607e-05 0)
(1.07937 1.3728e-05 0)
(1.067 9.80443e-06 0)
(1.07937 1.08338e-05 0)
(1.067 7.3505e-06 0)
(1.07937 8.29644e-06 0)
(1.067 5.22383e-06 0)
(1.07937 6.06633e-06 0)
(1.067 3.34834e-06 0)
(1.07937 4.08961e-06 0)
(1.067 1.68896e-06 0)
(1.07937 2.296e-06 0)
(1.067 8.14048e-08 0)
(1.07937 6.94361e-07 0)
(1.07937 -1.03701e-06 0)
(1.01051 0.0445282 0)
(1.00228 0.0190226 0)
(1.03544 0.07966 0)
(1.01546 0.0558301 0)
(1.06312 0.0993857 0)
(1.0398 0.0819266 0)
(1.08656 0.104582 0)
(1.06465 0.0941369 0)
(1.10366 0.0993094 0)
(1.0847 0.0951956 0)
(1.11365 0.0872237 0)
(1.09897 0.0882738 0)
(1.11747 0.0713254 0)
(1.10792 0.0761406 0)
(1.11685 0.0549397 0)
(1.11145 0.0614902 0)
(1.11406 0.0408408 0)
(1.11184 0.0472709 0)
(1.11038 0.0297528 0)
(1.11023 0.0355206 0)
(1.1066 0.0213062 0)
(1.10784 0.0261647 0)
(1.1032 0.0151982 0)
(1.10538 0.0190196 0)
(1.10037 0.011023 0)
(1.10308 0.0138514 0)
(1.09807 0.00820332 0)
(1.10116 0.0102507 0)
(1.09623 0.00628696 0)
(1.09957 0.00772449 0)
(1.09474 0.00508867 0)
(1.09829 0.00602709 0)
(1.09348 0.00451047 0)
(1.09731 0.00506479 0)
(1.09236 0.00451927 0)
(1.09652 0.00471994 0)
(1.09128 0.00516368 0)
(1.09587 0.00497751 0)
(1.09005 0.00658951 0)
(1.09528 0.00599013 0)
(1.08836 0.00903943 0)
(1.09459 0.00803458 0)
(1.08576 0.0127218 0)
(1.09346 0.0114919 0)
(1.08158 0.0175675 0)
(1.09133 0.0166352 0)
(1.07513 0.0225217 0)
(1.08706 0.0232146 0)
(1.06767 0.0258416 0)
(1.08132 0.028051 0)
(1.06157 0.0261888 0)
(1.07729 0.028607 0)
(1.05827 0.0230289 0)
(1.0781 0.0251891 0)
(1.05926 0.0163467 0)
(1.08539 0.01721 0)
(1.06498 0.0076129 0)
(1.0999 0.00580312 0)
(1.07352 0.000729374 0)
(1.11711 -0.00476648 0)
(1.07816 -0.00233604 0)
(1.12653 -0.00577509 0)
(1.0768 -0.00372513 0)
(1.12653 -0.00204045 0)
(1.07052 -0.00581197 0)
(1.11899 0.000956945 0)
(1.06282 -0.00901545 0)
(1.10559 -0.00032929 0)
(1.0563 -0.0125146 0)
(1.0907 -0.00432312 0)
(1.05248 -0.0154313 0)
(1.078 -0.00941519 0)
(1.05195 -0.0173141 0)
(1.06938 -0.0142593 0)
(1.05428 -0.017964 0)
(1.06548 -0.0176502 0)
(1.0586 -0.0173639 0)
(1.06571 -0.0191823 0)
(1.06379 -0.0157263 0)
(1.06864 -0.0187178 0)
(1.0691 -0.0134373 0)
(1.07272 -0.0169619 0)
(1.0739 -0.0109575 0)
(1.07703 -0.014365 0)
(1.07793 -0.00861189 0)
(1.08095 -0.0115812 0)
(1.08117 -0.00656712 0)
(1.08421 -0.00901056 0)
(1.08372 -0.00489143 0)
(1.08681 -0.00682056 0)
(1.08569 -0.00357395 0)
(1.08883 -0.00505391 0)
(1.08721 -0.00256148 0)
(1.09038 -0.00367639 0)
(1.08836 -0.0018004 0)
(1.09156 -0.00262784 0)
(1.08923 -0.00123993 0)
(1.09246 -0.0018505 0)
(1.08988 -0.000832259 0)
(1.09314 -0.00128355 0)
(1.09037 -0.000540382 0)
(1.09365 -0.000873098 0)
(1.09074 -0.000335875 0)
(1.09403 -0.000578706 0)
(1.09101 -0.00019618 0)
(1.09431 -0.000372231 0)
(1.0912 -0.000103085 0)
(1.09452 -0.000230198 0)
(1.09135 -4.26841e-05 0)
(1.09468 -0.000133767 0)
(1.09146 -4.87372e-06 0)
(1.0948 -6.93938e-05 0)
(1.09154 1.76216e-05 0)
(1.09489 -2.74991e-05 0)
(1.0916 2.98804e-05 0)
(1.09495 -1.29421e-06 0)
(1.09164 3.53783e-05 0)
(1.095 1.41376e-05 0)
(1.09167 3.65967e-05 0)
(1.09503 2.2374e-05 0)
(1.09169 3.52449e-05 0)
(1.09506 2.59379e-05 0)
(1.0917 3.24058e-05 0)
(1.09507 2.64881e-05 0)
(1.09171 2.87987e-05 0)
(1.09509 2.53108e-05 0)
(1.09172 2.49513e-05 0)
(1.0951 2.30583e-05 0)
(1.09173 2.11953e-05 0)
(1.0951 2.03274e-05 0)
(1.09173 1.76973e-05 0)
(1.09511 1.74136e-05 0)
(1.09173 1.45322e-05 0)
(1.09511 1.47098e-05 0)
(1.09173 1.17089e-05 0)
(1.09511 1.21251e-05 0)
(1.09174 9.18322e-06 0)
(1.09511 9.72889e-06 0)
(1.09174 6.90936e-06 0)
(1.09512 7.51022e-06 0)
(1.09174 4.85991e-06 0)
(1.09512 5.46133e-06 0)
(1.09174 2.99361e-06 0)
(1.09512 3.57972e-06 0)
(1.09174 1.27753e-06 0)
(1.09512 1.82628e-06 0)
(1.09174 -4.38052e-07 0)
(1.09512 1.81233e-07 0)
(1.09512 -1.61957e-06 0)
(1.00591 0.031162 0)
(1.00134 0.0131113 0)
(1.02196 0.0582841 0)
(1.00938 0.0397787 0)
(1.04263 0.0764691 0)
(1.02603 0.0612635 0)
(1.06289 0.0844509 0)
(1.04557 0.0738718 0)
(1.08016 0.0838806 0)
(1.0636 0.0779297 0)
(1.09324 0.0770061 0)
(1.07853 0.0751949 0)
(1.10188 0.066168 0)
(1.08995 0.0674994 0)
(1.10636 0.0537437 0)
(1.09748 0.0570023 0)
(1.10782 0.0419031 0)
(1.10166 0.0458115 0)
(1.10763 0.0318598 0)
(1.1035 0.0357164 0)
(1.10659 0.0237946 0)
(1.10395 0.0272033 0)
(1.10521 0.0176407 0)
(1.10372 0.0203962 0)
(1.10381 0.013118 0)
(1.10309 0.0152547 0)
(1.10259 0.00983612 0)
(1.10239 0.0114736 0)
(1.10158 0.00752598 0)
(1.10177 0.00873789 0)
(1.10081 0.00606339 0)
(1.10127 0.00679466 0)
(1.10027 0.00534404 0)
(1.10098 0.00560639 0)
(1.09991 0.00526479 0)
(1.10089 0.0050729 0)
(1.09972 0.00590237 0)
(1.10106 0.00516622 0)
(1.09962 0.00753182 0)
(1.10152 0.00609562 0)
(1.09941 0.0105605 0)
(1.10228 0.00824291 0)
(1.09866 0.0154287 0)
(1.10317 0.0122395 0)
(1.0966 0.0221427 0)
(1.10368 0.0187027 0)
(1.09259 0.0284295 0)
(1.10266 0.0272181 0)
(1.09053 0.0303497 0)
(1.10223 0.0301118 0)
(1.09364 0.0268471 0)
(1.10541 0.0255025 0)
(1.10539 0.0177689 0)
(1.11946 0.0134332 0)
(1.12618 0.0031992 0)
(1.13929 -0.0035784 0)
(1.15234 -0.0111542 0)
(1.16624 -0.0203555 0)
(1.17243 -0.0143708 0)
(1.17514 -0.0248509 -3.7412e-17)
(1.17673 -0.00572134 0)
(1.16779 -0.0100772 0)
(1.17002 0.00492033 0)
(1.1632 0.00466893 0)
(1.15407 0.0106453 0)
(1.16325 0.0168987 0)
(1.13312 0.00847794 0)
(1.1555 0.0206213 0)
(1.11236 0.000992576 0)
(1.1439 0.0164455 0)
(1.09432 -0.00749323 0)
(1.12575 0.00862394 0)
(1.08223 -0.0145064 0)
(1.10653 -0.00217086 0)
(1.07641 -0.0189362 0)
(1.09262 -0.0118315 0)
(1.07541 -0.020647 0)
(1.08533 -0.0181788 0)
(1.07735 -0.0200929 0)
(1.08339 -0.0206648 0)
(1.08048 -0.0180353 0)
(1.08433 -0.0200853 0)
(1.08398 -0.0151056 0)
(1.08647 -0.0178657 0)
(1.08717 -0.0120765 0)
(1.089 -0.0147702 0)
(1.0898 -0.00934205 0)
(1.09131 -0.0116403 0)
(1.09188 -0.00704952 0)
(1.09319 -0.00889891 0)
(1.09348 -0.00521626 0)
(1.09466 -0.00666225 0)
(1.09471 -0.00379708 0)
(1.09579 -0.00490631 0)
(1.09565 -0.00272643 0)
(1.09665 -0.00356316 0)
(1.09636 -0.00193691 0)
(1.0973 -0.00255805 0)
(1.09689 -0.0013614 0)
(1.0978 -0.00181791 0)
(1.09729 -0.000942329 0)
(1.09817 -0.00127634 0)
(1.0976 -0.00063996 0)
(1.09846 -0.0008824 0)
(1.09783 -0.000425721 0)
(1.09867 -0.000600617 0)
(1.098 -0.000275712 0)
(1.09883 -0.000402057 0)
(1.09813 -0.000171594 0)
(1.09896 -0.000262894 0)
(1.09822 -0.00010036 0)
(1.09905 -0.000165992 0)
(1.0983 -5.26843e-05 0)
(1.09912 -9.93902e-05 0)
(1.09835 -2.17046e-05 0)
(1.09917 -5.4766e-05 0)
(1.09839 -2.34115e-06 0)
(1.09921 -2.56189e-05 0)
(1.09842 9.12178e-06 0)
(1.09924 -7.10084e-06 0)
(1.09844 1.52804e-05 0)
(1.09927 4.17776e-06 0)
(1.09846 1.79645e-05 0)
(1.09928 1.05437e-05 0)
(1.09847 1.84392e-05 0)
(1.0993 1.36044e-05 0)
(1.09848 1.75605e-05 0)
(1.09931 1.45121e-05 0)
(1.09848 1.59519e-05 0)
(1.09931 1.4096e-05 0)
(1.09849 1.39977e-05 0)
(1.09932 1.29532e-05 0)
(1.09849 1.19226e-05 0)
(1.09932 1.14503e-05 0)
(1.09849 9.85113e-06 0)
(1.09932 9.7665e-06 0)
(1.09849 7.83393e-06 0)
(1.09933 7.99345e-06 0)
(1.0985 5.89812e-06 0)
(1.09933 6.21101e-06 0)
(1.0985 4.06647e-06 0)
(1.09933 4.46364e-06 0)
(1.0985 2.33267e-06 0)
(1.09933 2.78916e-06 0)
(1.0985 6.75696e-07 0)
(1.09933 1.17191e-06 0)
(1.0985 -1.0277e-06 0)
(1.09933 -4.14644e-07 0)
(1.09933 -2.17141e-06 0)
(1.00367 0.0223935 0)
(1.00088 0.0094437 0)
(1.01453 0.043065 0)
(1.00624 0.0289206 0)
(1.02992 0.0586076 0)
(1.0181 0.0458694 0)
(1.04653 0.0671303 0)
(1.03336 0.0572636 0)
(1.06209 0.0689689 0)
(1.0488 0.062366 0)
(1.07533 0.0654182 0)
(1.06283 0.0619573 0)
(1.08558 0.0581261 0)
(1.07467 0.0572495 0)
(1.09275 0.0489269 0)
(1.08382 0.0498272 0)
(1.09723 0.0395226 0)
(1.09029 0.0413359 0)
(1.0998 0.0310149 0)
(1.09454 0.0331451 0)
(1.10108 0.0238347 0)
(1.09722 0.0259265 0)
(1.10155 0.0180791 0)
(1.0988 0.0199256 0)
(1.10163 0.0136761 0)
(1.09968 0.0151784 0)
(1.10154 0.0104279 0)
(1.10017 0.0115562 0)
(1.10143 0.00805924 0)
(1.10048 0.00884776 0)
(1.1014 0.00641692 0)
(1.10076 0.00683308 0)
(1.10153 0.00545231 0)
(1.1011 0.00547175 0)
(1.10194 0.00511482 0)
(1.10166 0.00466415 0)
(1.10271 0.00551349 0)
(1.1026 0.00439206 0)
(1.10396 0.00697675 0)
(1.10414 0.00484524 0)
(1.10572 0.0101038 0)
(1.10656 0.00648397 0)
(1.10776 0.0156606 0)
(1.11 0.0102029 0)
(1.10953 0.0238099 0)
(1.11421 0.0169342 0)
(1.11119 0.0284719 0)
(1.11841 0.025558 0)
(1.11686 0.0237034 0)
(1.12183 0.0244367 6.05363e-33)
(1.13097 0.0105707 0)
(1.12473 0.0114 -6.05672e-33)
(1.15442 -0.00902466 0)
(1.13881 -0.0100194 0)
(1.17769 -0.022331 0)
(1.14136 -0.0268514 0)
(1.18915 -0.0236313 -3.7412e-17)
(0.596747 0.533159 0)
(1.17347 -0.0151053 -3.7412e-17)
(0.592487 0.379183 -3.7412e-17)
(1.15504 -0.000853463 0)
(0.579497 0.272679 0)
(1.15711 0.0106626 0)
(0.575763 0.237226 0)
(1.16607 0.0163682 0)
(0.581427 0.249112 0)
(1.1646 0.0212653 0)
(0.583239 0.158122 0)
(1.15732 0.0237069 0)
(1.15077 0.0237259 0)
(1.13716 0.0152662 0)
(1.15045 0.0287819 0)
(1.11618 0.00124963 0)
(1.13584 0.0188145 0)
(1.10089 -0.0110429 0)
(1.11812 0.00345191 0)
(1.0929 -0.0183916 0)
(1.10494 -0.0101829 0)
(1.09016 -0.0208721 0)
(1.0981 -0.0179304 0)
(1.09016 -0.0201132 0)
(1.0955 -0.0200806 0)
(1.09139 -0.0177126 0)
(1.09507 -0.0190989 0)
(1.0931 -0.0144864 0)
(1.09554 -0.0164794 0)
(1.09468 -0.0113215 0)
(1.09645 -0.0132192 0)
(1.09596 -0.00860725 0)
(1.0973 -0.0101755 0)
(1.09695 -0.00642173 0)
(1.09799 -0.0076578 0)
(1.09772 -0.00472227 0)
(1.09852 -0.00567016 0)
(1.0983 -0.0034315 0)
(1.09893 -0.00414628 0)
(1.09874 -0.00246768 0)
(1.09925 -0.00300154 0)
(1.09908 -0.00175667 0)
(1.0995 -0.00215388 0)
(1.09933 -0.00123677 0)
(1.09968 -0.00153164 0)
(1.09953 -0.000860513 0)
(1.09983 -0.00107785 0)
(1.09968 -0.000591966 0)
(1.09994 -0.000750407 0)
(1.09979 -0.000402003 0)
(1.10003 -0.00051669 0)
(1.09988 -0.000267861 0)
(1.1001 -0.000350592 0)
(1.09995 -0.000173508 0)
(1.10016 -0.000233092 0)
(1.1 -0.000108081 0)
(1.1002 -0.000150779 0)
(1.10004 -6.37617e-05 0)
(1.10023 -9.42286e-05 0)
(1.10007 -3.42779e-05 0)
(1.10026 -5.58757e-05 0)
(1.10009 -1.50285e-05 0)
(1.10028 -3.02444e-05 0)
(1.10011 -2.85252e-06 0)
(1.1003 -1.3486e-05 0)
(1.10012 4.42908e-06 0)
(1.10031 -2.90423e-06 0)
(1.10013 8.35913e-06 0)
(1.10032 3.37714e-06 0)
(1.10014 1.00662e-05 0)
(1.10033 6.75734e-06 0)
(1.10015 1.03818e-05 0)
(1.10033 8.23242e-06 0)
(1.10015 9.87326e-06 0)
(1.10034 8.54144e-06 0)
(1.10016 8.88001e-06 0)
(1.10034 8.11825e-06 0)
(1.10016 7.59507e-06 0)
(1.10034 7.23619e-06 0)
(1.10016 6.13652e-06 0)
(1.10035 6.05945e-06 0)
(1.10016 4.60085e-06 0)
(1.10035 4.71765e-06 0)
(1.10016 3.05654e-06 0)
(1.10035 3.30527e-06 0)
(1.10016 1.53576e-06 0)
(1.10035 1.88325e-06 0)
(1.10016 2.06652e-08 0)
(1.10035 4.6724e-07 0)
(1.10016 -1.59081e-06 0)
(1.10035 -9.89241e-07 0)
(1.10035 -2.62032e-06 0)
(1.00256 0.0163574 0)
(1.00065 0.00688454 0)
(1.01037 0.0319349 0)
(1.00456 0.0211097 0)
(1.0222 0.0445326 0)
(1.01347 0.034042 0)
(1.0359 0.0523999 0)
(1.02571 0.0435608 0)
(1.04967 0.0552138 0)
(1.03898 0.0486005 0)
(1.06228 0.0536443 0)
(1.05186 0.0493474 0)
(1.07296 0.0488269 0)
(1.06347 0.0465704 0)
(1.08137 0.042142 0)
(1.07322 0.0414135 0)
(1.08757 0.0349022 0)
(1.08088 0.03513 0)
(1.09195 0.0280348 0)
(1.08662 0.0287667 0)
(1.09493 0.0220191 0)
(1.09079 0.022947 0)
(1.0969 0.017039 0)
(1.09374 0.0179583 0)
(1.0982 0.0130892 0)
(1.09581 0.0138803 0)
(1.0991 0.0100406 0)
(1.09728 0.0106599 0)
(1.09979 0.00772201 0)
(1.09838 0.00814923 0)
(1.10043 0.00601162 0)
(1.0993 0.00619674 0)
(1.10119 0.00482408 0)
(1.10017 0.00471616 0)
(1.10227 0.00410626 0)
(1.10123 0.00358394 0)
(1.10392 0.00392639 0)
(1.10272 0.00274274 0)
(1.10653 0.00459861 0)
(1.10506 0.00223293 0)
(1.11052 0.00689231 0)
(1.10894 0.0024963 0)
(1.11609 0.0118939 0)
(1.11463 0.00462683 0)
(1.123 0.0196199 0)
(1.12252 0.0100281 0)
(1.12833 0.0230913 6.05363e-33)
(1.12879 0.0202303 0)
(1.13186 0.0131079 -6.92591e-35)
(1.12769 0.0209078 6.05363e-33)
(1.14059 -0.00828618 -6.05672e-33)
(1.1097 0.00266858 2.5954e-18)
(1.14949 -0.0174408 0)
(1.01082 -0.0116602 0)
(1.5374 -0.00712345 0)
(0.55877 0.404293 0)
(0.839716 0 0)
(0 -0.00239201 0)
(0.405958 0 0)
(0 0.00128309 0)
(0.374725 0 0)
(0 0.00556978 0)
(0.443344 0 0)
(0 0.0125034 0)
(0.526815 0 0)
(0 0.0214265 0)
(0.864132 0.00839418 0)
(0 0.0616806 0)
(1.14448 0.0234621 0)
(0.568059 0.0911854 0)
(1.14752 0.0287183 0)
(1.13949 0.0241894 -7.67736e-18)
(1.13674 0.0198749 0)
(1.14333 0.0295898 -1.32206e-18)
(1.1216 0.00379554 0)
(1.13311 0.0185957 0)
(1.10979 -0.0102042 0)
(1.12057 0.0016283 0)
(1.10328 -0.0175443 0)
(1.11152 -0.0114241 0)
(1.10032 -0.0193666 0)
(1.10651 -0.0171214 0)
(1.09913 -0.0180856 0)
(1.10375 -0.017905 0)
(1.0989 -0.0153761 0)
(1.10219 -0.016246 0)
(1.09907 -0.0122094 0)
(1.10144 -0.0133971 0)
(1.09933 -0.0093348 0)
(1.10107 -0.0104309 0)
(1.09956 -0.00699085 0)
(1.10085 -0.00788574 0)
(1.09974 -0.00515997 0)
(1.1007 -0.00585562 0)
(1.09989 -0.0037671 0)
(1.1006 -0.00429434 0)
(1.10001 -0.00272589 0)
(1.10053 -0.00311979 0)
(1.1001 -0.0019567 0)
(1.10049 -0.0022489 0)
(1.10018 -0.00139299 0)
(1.10047 -0.0016091 0)
(1.10025 -0.000982778 0)
(1.10046 -0.00114224 0)
(1.1003 -0.000686623 0)
(1.10046 -0.000804037 0)
(1.10034 -0.000474419 0)
(1.10047 -0.000560907 0)
(1.10038 -0.000323285 0)
(1.10048 -0.000387032 0)
(1.10041 -0.000216502 0)
(1.10049 -0.000263253 0)
(1.10044 -0.000142007 0)
(1.1005 -0.000175855 0)
(1.10046 -9.05486e-05 0)
(1.10051 -0.000114917 0)
(1.10047 -5.52682e-05 0)
(1.10052 -7.27342e-05 0)
(1.10049 -3.14277e-05 0)
(1.10053 -4.39075e-05 0)
(1.1005 -1.56511e-05 0)
(1.10054 -2.45688e-05 0)
(1.10051 -5.58109e-06 0)
(1.10055 -1.19122e-05 0)
(1.10051 5.14754e-07 0)
(1.10056 -3.89347e-06 0)
(1.10052 3.94331e-06 0)
(1.10056 9.0279e-07 0)
(1.10053 5.62973e-06 0)
(1.10056 3.57072e-06 0)
(1.10053 6.19709e-06 0)
(1.10057 4.86038e-06 0)
(1.10053 6.02709e-06 0)
(1.10057 5.21293e-06 0)
(1.10053 5.36522e-06 0)
(1.10057 4.91933e-06 0)
(1.10054 4.39114e-06 0)
(1.10058 4.21152e-06 0)
(1.10054 3.23728e-06 0)
(1.10058 3.24933e-06 0)
(1.10054 1.99664e-06 0)
(1.10058 2.15373e-06 0)
(1.10054 7.1976e-07 0)
(1.10058 9.91726e-07 0)
(1.10054 -6.03977e-07 0)
(1.10058 -2.00029e-07 0)
(1.10054 -2.05198e-06 0)
(1.10058 -1.4718e-06 0)
(1.10058 -2.91036e-06 0)
(1.00196 0.0118722 0)
(1.00051 0.00492723 0)
(1.00796 0.0233693 0)
(1.0036 0.0151024 0)
(1.01742 0.0331052 0)
(1.01071 0.0245845 0)
(1.02901 0.0397232 0)
(1.02087 0.0319701 0)
(1.04129 0.042663 0)
(1.03251 0.0363188 0)
(1.05315 0.0421921 0)
(1.04439 0.0374899 0)
(1.0638 0.0390786 0)
(1.0556 0.0359266 0)
(1.07277 0.0343371 0)
(1.06551 0.0324414 0)
(1.07994 0.0289527 0)
(1.07379 0.0279538 0)
(1.08547 0.0236601 0)
(1.08042 0.0232411 0)
(1.08961 0.0188867 0)
(1.08556 0.0188074 0)
(1.09266 0.0148226 0)
(1.08947 0.0149123 0)
(1.09489 0.0114983 0)
(1.0924 0.0116452 0)
(1.09657 0.00883784 0)
(1.0946 0.00898291 0)
(1.09789 0.00671847 0)
(1.0963 0.00682384 0)
(1.09904 0.0050249 0)
(1.09767 0.00505043 0)
(1.10021 0.00363302 0)
(1.09886 0.00354479 0)
(1.10167 0.00241834 0)
(1.10012 0.002128 0)
(1.10379 0.00128912 0)
(1.10169 0.000616141 0)
(1.10725 0.000383225 0)
(1.10408 -0.00122577 0)
(1.11281 0.000429077 0)
(1.10809 -0.003063 0)
(1.12087 0.00323877 0)