/*--------------------------------*- C++ -*----------------------------------*\
| =========                 |                                                 |
| \\      /  F ield         | OpenFOAM: The Open Source CFD Toolbox           |
|  \\    /   O peration     | Version:  2206                                  |
|   \\  /    A nd           | Website:  www.openfoam.com                      |
|    \\/     M anipulation  |                                                 |
\*---------------------------------------------------------------------------*/
FoamFile
{
    version     2.0;
    format      ascii;
    arch        "LSB;label=32;scalar=64";
    class       volScalarField;
    location    "0.7";
    object      epsilon;
}
// * * * * * * * * * * * * * * * * * * * * * * * * * * * * * * * * * * * * * //

dimensions      [0 2 -3 0 0 0 0];

internalField   nonuniform List<scalar> 
1875
(
0.000332615
0.000736724
0.00154211
0.00233347
0.0028316
0.00304105
0.00302732
0.00287475
0.00265838
0.00242956
0.00221737
0.00203544
0.00188807
0.00177465
0.00169221
0.00163714
0.0016054
0.00159501
0.00160509
0.00163612
0.00169024
0.00177176
0.00188789
0.00205014
0.00227617
0.00259293
0.00304128
0.00368321
0.00461222
0.00596772
0.00795243
0.0108484
0.0150184
0.02087
0.0287693
0.0387775
0.0497781
0.0585136
0.063021
0.0615083
0.054263
0.0434816
0.0319991
0.0220466
0.014587
0.00954464
0.00631699
0.00436478
0.00319214
0.00248795
0.00206222
0.00180074
0.00163861
0.00153739
0.00147278
0.00143061
0.00140403
0.00138768
0.00137796
0.00137257
0.00136991
0.00136895
0.00136899
0.0013696
0.00137048
0.00137145
0.0013724
0.00137328
0.00137406
0.00137473
0.0013753
0.00137577
0.00137616
0.00137648
0.0013767
0.000235957
0.000346206
0.000575983
0.000878746
0.00118919
0.00143363
0.00159475
0.00167209
0.00167878
0.00163534
0.00156278
0.00147842
0.00139447
0.00131845
0.00125429
0.00120341
0.00116445
0.00113623
0.00111834
0.00111028
0.00111181
0.00112317
0.00114536
0.0011804
0.00123169
0.0013045
0.00140667
0.00154959
0.00174951
0.0020294
0.00242133
0.00296927
0.00373219
0.0047856
0.0062198
0.00812948
0.0105598
0.0136649
0.0167744
0.0192098
0.0203164
0.0198061
0.0178451
0.0149385
0.0117179
0.00872175
0.00627492
0.00446467
0.00322197
0.00240951
0.00189348
0.00157009
0.00136763
0.00124031
0.0011592
0.00110665
0.00107221
0.00104947
0.00103435
0.00102437
0.0010178
0.00101351
0.00101075
0.00100901
0.00100795
0.00100733
0.001007
0.00100684
0.0010068
0.00100682
0.00100688
0.00100695
0.00100704
0.00100714
0.00100717
0.000201919
0.000229015
0.000294155
0.000392897
0.000510112
0.000625493
0.000726196
0.000801619
0.000849538
0.000871522
0.000871658
0.000855568
0.000828977
0.000796957
0.000763511
0.000731491
0.000702979
0.000677373
0.000655121
0.000636308
0.000620755
0.000608219
0.000598533
0.000591808
0.000588477
0.000589494
0.000596443
0.000611688
0.000638598
0.000681901
0.000748133
0.000845858
0.000984663
0.00117303
0.00142017
0.00174314
0.00217477
0.00284676
0.00385313
0.00508232
0.00628688
0.0071896
0.00758858
0.00741399
0.00673759
0.00573449
0.00461536
0.00356001
0.00267993
0.00201076
0.00153524
0.00121271
0.0010002
0.000862312
0.00077327
0.00071563
0.000678171
0.000653797
0.000637497
0.00062649
0.000618963
0.000613825
0.000610337
0.000607952
0.000606317
0.000605199
0.000604438
0.000603925
0.000603583
0.000603357
0.000603213
0.000603127
0.000603084
0.000603082
0.000603126
0.000190575
0.00018972
0.000203059
0.000230921
0.000270276
0.00031477
0.000358278
0.000396008
0.000425539
0.00044574
0.000455919
0.00045726
0.000451363
0.000440042
0.00042511
0.000408228
0.000390993
0.000374479
0.000358721
0.000343954
0.000330248
0.000317566
0.000305811
0.000294981
0.000285207
0.00027687
0.000270631
0.000267613
0.000269687
0.000280056
0.000303926
0.000347392
0.000411222
0.000484216
0.000548023
0.000606396
0.000675512
0.000764071
0.000995273
0.00140635
0.00195225
0.00254021
0.00304796
0.00336283
0.00342335
0.00323722
0.00286656
0.00239894
0.00192001
0.00149306
0.00114873
0.000890588
0.000706848
0.000580563
0.000495651
0.000439246
0.000401983
0.000377417
0.000361332
0.000350726
0.000343608
0.000338774
0.000335473
0.00033322
0.000331672
0.000330604
0.000329865
0.000329354
0.000329
0.000328757
0.000328591
0.00032848
0.000328411
0.000328384
0.00032844
0.000187018
0.00017639
0.00017218
0.000174764
0.000183435
0.000196386
0.000211304
0.000225956
0.000238535
0.000247891
0.000253367
0.000254984
0.000253113
0.000248245
0.000240903
0.000231842
0.000221819
0.000211899
0.000202231
0.000192964
0.000184185
0.000175935
0.000168207
0.000161039
0.00015465
0.000149332
0.00014571
0.000145032
0.000149914
0.000165857
0.000202561
0.000267427
0.000348655
0.000411812
0.000413789
0.000418382
0.000459951
0.000507604
0.000576446
0.000703972
0.000901535
0.0011597
0.00144362
0.001688
0.0018336
0.00185349
0.00175105
0.00155519
0.00130955
0.0010579
0.000832048
0.000647385
0.000506252
0.000403502
0.000331204
0.0002815
0.000247847
0.000225283
0.000210253
0.000200294
0.000193767
0.000189438
0.000186534
0.000184577
0.000183251
0.000182349
0.000181731
0.000181306
0.000181013
0.00018081
0.000180671
0.000180575
0.000180513
0.000180483
0.00018052
0.000185883
0.000172027
0.000161674
0.000154983
0.000151753
0.000151396
0.000153039
0.00015568
0.000158378
0.000160427
0.000161345
0.000160845
0.000158868
0.000155509
0.000150942
0.000145454
0.000139391
0.000133292
0.000127437
0.000121913
0.000116785
0.000112089
0.000107798
0.000104085
0.000101149
9.94003e-05
9.96958e-05
0.000103974
0.000116939
0.000149403
0.000218567
0.000320891
0.000417228
0.000470369
0.000376231
0.000438107
0.000814285
0.00143256
0.00177819
0.00178762
0.00168461
0.00156901
0.00147305
0.00142111
0.00136815
0.00131247
0.00122792
0.00110159
0.000944985
0.000778243
0.00062096
0.000486177
0.000378754
0.000297645
0.000238801
0.000197337
0.000168729
0.00014929
0.000136228
0.000127517
0.000121747
0.000117955
0.000115472
0.000113827
0.000112733
0.000112001
0.000111508
0.000111175
0.000110948
0.000110793
0.000110686
0.000110613
0.000110564
0.000110537
0.00011055
0.000185489
0.000170561
0.000158096
0.000148028
0.000140213
0.000134392
0.000130194
0.000127162
0.000124824
0.000122778
0.000120709
0.000118379
0.000115665
0.000112523
0.000109005
0.000105187
0.0001012
9.72724e-05
9.35951e-05
9.02272e-05
8.72138e-05
8.45809e-05
8.23941e-05
8.0894e-05
8.02605e-05
8.10719e-05
8.46097e-05
9.40743e-05
0.000117923
0.000175758
0.000288745
0.000404092
0.0005212
0.000618625
0.000267819
0.000359268
0.000636975
0.00114864
0.00103052
0.00056848
0.000316332
0.00170214
0.00196186
0.00177893
0.00150923
0.00127262
0.00108877
0.000926711
0.000773645
0.000629698
0.000500119
0.000390304
0.00030263
0.000235992
0.000187272
0.000152705
0.000128736
0.000112404
0.000101424
9.41177e-05
8.92939e-05
8.61292e-05
8.4061e-05
8.27208e-05
8.18469e-05
8.12735e-05
8.08954e-05
8.06445e-05
8.04769e-05
8.03641e-05
8.02878e-05
8.02359e-05
8.02008e-05
8.01791e-05
8.01759e-05
0.000185337
0.00017003
0.000156826
0.000145544
0.000136002
0.000128009
0.000121347
0.000115777
0.000111048
0.000106931
0.000103229
9.97846e-05
9.64849e-05
9.32669e-05
9.01076e-05
8.70153e-05
8.4025e-05
8.12219e-05
7.87019e-05
7.6498e-05
7.46451e-05
7.31912e-05
7.2227e-05
7.19388e-05
7.26742e-05
7.52127e-05
8.14472e-05
9.64879e-05
0.000134533
0.000226711
0.000378258
0.000463188
0.000672528
0.000492111
0.00174253
0.0002
0.0002
0.0002
0.0002
0.0002
0.00116646
0.000622393
0.00179618
0.00191601
0.00163841
0.00133361
0.00107987
0.000873902
0.000701758
0.000555821
0.000433599
0.000334506
0.000257392
0.000199687
0.000157902
0.000128465
0.000108168
9.44168e-05
8.523e-05
7.91607e-05
7.51854e-05
7.26032e-05
7.09341e-05
6.98589e-05
6.91688e-05
6.87259e-05
6.844e-05
6.82545e-05
6.81335e-05
6.80538e-05
6.8001e-05
6.79657e-05
6.79418e-05
6.79256e-05
6.79139e-05
0.000185269
0.000169814
0.000156334
0.000144601
0.000134409
0.000125569
0.000117908
0.000111256
0.000105455
0.00010036
9.58434e-05
9.17969e-05
8.81346e-05
8.47951e-05
8.17387e-05
7.89434e-05
7.64032e-05
7.41388e-05
7.21845e-05
7.05575e-05
6.92863e-05
6.84241e-05
6.80774e-05
6.84615e-05
7.00279e-05
7.38174e-05
8.25105e-05
0.00010379
0.000159667
0.000295421
0.000463284
0.000528783
0.000449066
0.0002
0.0002
0.0002
0.0002
0.0002
0.0002
0.0002
0.0002
0.00229469
0.000529955
0.00127048
0.0013206
0.00116166
0.000971711
0.00079333
0.000634643
0.000498208
0.000385099
0.00029509
0.000226338
0.000175687
0.000139471
0.0001142
9.6908e-05
8.5267e-05
7.75305e-05
7.24582e-05
6.91606e-05
6.70345e-05
6.56726e-05
6.48043e-05
6.4253e-05
6.39037e-05
6.36827e-05
6.35422e-05
6.34526e-05
6.33951e-05
6.33578e-05
6.33335e-05
6.33172e-05
6.33051e-05
6.32895e-05
0.000185237
0.000169715
0.000156119
0.000144205
0.000133755
0.000124581
0.000116516
0.000109417
0.000103156
9.76241e-05
9.27257e-05
8.83802e-05
8.45194e-05
8.10884e-05
7.80439e-05
7.53534e-05
7.29944e-05
7.096e-05
6.92545e-05
6.78856e-05
6.6878e-05
6.62889e-05
6.62397e-05
6.69836e-05
6.90729e-05
7.38281e-05
8.48219e-05
0.000112809
0.000189505
0.000380393
0.00061048
0.000246663
0.00229914
0.0002
0.0002
0.0002
0.0002
0.0002
0.0002
0.0002
0.0002
0.0002
0.000724976
0.000451346
0.000747534
0.000798101
0.000741879
0.00064366
0.000533031
0.000426551
0.000333417
0.000257661
0.000199425
0.000156515
0.000125889
0.00010455
8.99591e-05
8.01372e-05
7.36123e-05
6.93291e-05
6.65468e-05
6.47556e-05
6.36132e-05
6.28892e-05
6.24322e-05
6.2145e-05
6.19651e-05
6.18525e-05
6.17819e-05
6.17374e-05
6.17093e-05
6.16913e-05
6.16794e-05
6.16697e-05
6.16526e-05
0.00018522
0.000169666
0.000156016
0.000144021
0.000133462
0.000124147
0.000115916
0.000108631
0.000102177
9.64558e-05
9.13876e-05
8.6903e-05
8.29429e-05
7.94565e-05
7.64007e-05
7.37389e-05
7.14427e-05
6.94937e-05
6.78832e-05
6.66141e-05
6.57098e-05
6.52315e-05
6.53133e-05
6.62424e-05
6.86599e-05
7.41473e-05
8.7154e-05
0.000121665
0.000220916
0.000479421
0.000795348
0.000520441
0.0002
0.0002
0.0002
0.0002
0.0002
0.0002
0.0002
0.0002
0.0002
0.0002
0.0002
0.000157186
0.000352963
0.000478099
0.000509624
0.000481416
0.000420911
0.000349186
0.00028032
0.000221456
0.000175018
0.000140227
0.000115098
9.74174e-05
8.52206e-05
7.69412e-05
7.13989e-05
6.77349e-05
6.53407e-05
6.37929e-05
6.2802e-05
6.21731e-05
6.17767e-05
6.15284e-05
6.13734e-05
6.1277e-05
6.1217e-05
6.11798e-05
6.11565e-05
6.11418e-05
6.11321e-05
6.11238e-05
6.11062e-05
0.000185211
0.000169642
0.000155968
0.000143937
0.000133329
0.000123956
0.000115657
0.000108296
0.000101762
9.59637e-05
9.08248e-05
8.62808e-05
8.22762e-05
7.87621e-05
7.56955e-05
7.30385e-05
7.07596e-05
6.88368e-05
6.72559e-05
6.60172e-05
6.51442e-05
6.47009e-05
6.48308e-05
6.58441e-05
6.84454e-05
7.44108e-05
8.88849e-05
0.000128656
0.000248344
0.000572894
0.000948565
0.00107854
0.0002
0.0002
0.0002
0.0002
0.0002
0.0002
0.0002
0.0002
0.0002
0.0002
0.0002
0.000132902
0.000199308
0.000290908
0.000353576
0.000363127
0.000335568
0.000289043
0.000238787
0.000193393
0.000156465
0.000128181
0.000107364
9.24925e-05
8.20937e-05
7.49476e-05
7.01106e-05
6.68814e-05
6.47533e-05
6.33675e-05
6.2475e-05
6.19059e-05
6.15461e-05
6.13202e-05
6.11791e-05
6.10914e-05
6.1037e-05
6.10033e-05
6.09823e-05
6.09692e-05
6.09605e-05
6.09528e-05
6.09351e-05
0.000185209
0.000169635
0.000155953
0.000143911
0.00013329
0.000123901
0.000115582
0.0001082
0.000101644
9.58247e-05
9.06659e-05
8.6105e-05
8.20873e-05
7.85646e-05
7.54937e-05
7.28364e-05
7.05608e-05
6.86424e-05
6.70662e-05
6.58321e-05
6.49634e-05
6.45253e-05
6.46644e-05
6.56994e-05
6.83587e-05
7.4494e-05
8.95371e-05
0.000131549
0.000261176
0.000629554
0.00125686
0.0029258
0.0002
0.0002
0.0002
0.0002
0.0002
0.0002
0.0002
0.0002
0.0002
0.0002
0.0002
0.000120867
0.00016016
0.000228505
0.000292243
0.00031237
0.000296466
0.000260087
0.000218068
0.000179059
0.000146727
0.000121793
0.000103246
8.98786e-05
8.04542e-05
7.39267e-05
6.94758e-05
6.64841e-05
6.45e-05
6.32007e-05
6.23595e-05
6.18206e-05
6.14784e-05
6.12628e-05
6.11278e-05
6.10436e-05
6.09912e-05
6.09587e-05
6.09384e-05
6.09257e-05
6.09174e-05
6.09099e-05
6.0892e-05
0.000185211
0.000169642
0.000155968
0.000143937
0.000133329
0.000123956
0.000115656
0.000108294
0.00010176
9.59597e-05
9.08185e-05
8.62716e-05
8.22638e-05
7.87463e-05
7.56764e-05
7.30165e-05
7.07354e-05
6.88106e-05
6.72278e-05
6.59874e-05
6.51124e-05
6.46667e-05
6.47931e-05
6.58015e-05
6.83947e-05
7.43403e-05
8.87424e-05
0.000128219
0.000246894
0.000569257
0.0009515
0.00108153
0.0002
0.0002
0.0002
0.0002
0.0002
0.0002
0.0002
0.0002
0.0002
0.0002
0.0002
0.000128452
0.000193333
0.000278468
0.000335475
0.000342311
0.000314921
0.000270644
0.000223677
0.000181763
0.000147962
0.000122217
0.000103324
8.98321e-05
8.03836e-05
7.38707e-05
6.94438e-05
6.64736e-05
6.45051e-05
6.32156e-05
6.23799e-05
6.18436e-05
6.15023e-05
6.12866e-05
6.1151e-05
6.10662e-05
6.10132e-05
6.09801e-05
6.09595e-05
6.09464e-05
6.09378e-05
6.09301e-05
6.09121e-05
0.00018522
0.000169666
0.000156016
0.000144021
0.000133461
0.000124147
0.000115914
0.000108626
0.000102167
9.64401e-05
9.13631e-05
8.68678e-05
8.28956e-05
7.93968e-05
7.63293e-05
7.36577e-05
7.13541e-05
6.94e-05
6.77861e-05
6.65148e-05
6.56087e-05
6.51282e-05
6.52065e-05
6.61293e-05
6.85345e-05
7.39883e-05
8.68684e-05
0.000120872
0.000218518
0.000475058
0.000799068
0.000527543
0.0002
0.0002
0.0002
0.0002
0.0002
0.0002
0.0002
0.0002
0.0002
0.0002
0.0002
0.00014772
0.000333821
0.000442691
0.000465219
0.000434863
0.000377317
0.000311652
0.000250098
0.000198437
0.000158268
0.000128491
0.000107127
9.21407e-05
8.18004e-05
7.47611e-05
7.00254e-05
6.68741e-05
6.47988e-05
6.34456e-05
6.25713e-05
6.20111e-05
6.16547e-05
6.14292e-05
6.12871e-05
6.11978e-05
6.11418e-05
6.11067e-05
6.10846e-05
6.10705e-05
6.10612e-05
6.1053e-05
6.10346e-05
0.000185237
0.000169715
0.000156119
0.000144204
0.000133754
0.000124578
0.000116509
0.000109401
0.000103127
9.75756e-05
9.26513e-05
8.82744e-05
8.4379e-05
8.09129e-05
7.78362e-05
7.51192e-05
7.27415e-05
7.06963e-05
6.89864e-05
6.76183e-05
6.66148e-05
6.60313e-05
6.5987e-05
6.67332e-05
6.88174e-05
7.35428e-05
8.44053e-05
0.000111863
0.00018692
0.000375944
0.000614885
0.00025158
0.00235713
0.0002
0.0002
0.0002
0.0002
0.0002
0.0002
0.0002
0.0002
0.0002
0.000688886
0.000428435
0.000693669
0.000724256
0.000662074
0.000566854
0.000464646
0.000369305
0.00028798
0.000223249
0.000174398
0.000138926
0.00011387
9.65207e-05
8.46874e-05
7.67151e-05
7.14007e-05
6.7893e-05
6.55985e-05
6.41094e-05
6.31517e-05
6.25392e-05
6.21491e-05
6.19018e-05
6.17455e-05
6.1647e-05
6.15848e-05
6.15454e-05
6.15204e-05
6.15043e-05
6.14935e-05
6.14843e-05
6.14655e-05
0.000185269
0.000169814
0.000156334
0.0001446
0.000134406
0.000125561
0.000117888
0.000111215
0.000105379
0.000100233
9.56504e-05
9.15264e-05
8.77803e-05
8.43576e-05
8.12262e-05
7.83708e-05
7.579e-05
7.35054e-05
7.15478e-05
6.99314e-05
6.86809e-05
6.78458e-05
6.75285e-05
6.79404e-05
6.95275e-05
7.33146e-05
8.19177e-05
0.000102784
0.0001574
0.000291966
0.00046838
0.000545622
0.000459147
0.0002
0.0002
0.0002
0.0002
0.0002
0.0002
0.0002
0.0002
0.00216498
0.00049041
0.00119626
0.00121484
0.00104677
0.000859989
0.000691047
0.0005455
0.000424055
0.000326155
0.000250209
0.000193453
0.000152361
0.000123352
0.000103277
8.9601e-05
8.0403e-05
7.42786e-05
7.02499e-05
6.76175e-05
6.59104e-05
6.48099e-05
6.41038e-05
6.36529e-05
6.33656e-05
6.3183e-05
6.30666e-05
6.29922e-05
6.29444e-05
6.29134e-05
6.28932e-05
6.28796e-05
6.28685e-05
6.28487e-05
0.000185337
0.00017003
0.000156826
0.000145543
0.000135997
0.000127991
0.000121302
0.00011568
0.000110871
0.000106639
0.000102793
9.91811e-05
9.57043e-05
9.23148e-05
8.90046e-05
8.57945e-05
8.27279e-05
7.98915e-05
7.73746e-05
7.52029e-05
7.34043e-05
7.20196e-05
7.11324e-05
7.09215e-05
7.17279e-05
7.43176e-05
8.05378e-05
9.53417e-05
0.000132617
0.000224302
0.000380145
0.000477141
0.000697731
0.000509792
0.00180593
0.0002
0.0002
0.0002
0.0002
0.0002
0.00113998
0.000583285
0.00171338
0.00179106
0.00150665
0.00120292
0.000954314
0.000757073
0.000597574
0.000467377
0.000362204
0.000279526
0.000216736
0.000170589
0.000137579
0.000114496
9.86345e-05
8.78919e-05
8.0701e-05
7.59335e-05
7.27967e-05
7.07496e-05
6.94202e-05
6.85601e-05
6.80061e-05
6.76496e-05
6.74191e-05
6.72695e-05
6.71719e-05
6.71078e-05
6.70654e-05
6.70372e-05
6.7018e-05
6.70032e-05
6.6982e-05
0.00018549
0.000170562
0.000158096
0.000148028
0.000140205
0.000134361
0.000130107
0.00012697
0.000124468
0.000122192
0.000119838
0.000117188
0.000114143
0.000110691
0.000106908
0.000102891
9.87825e-05
9.48104e-05
9.11545e-05
8.78591e-05
8.49565e-05
8.24595e-05
8.0422e-05
7.90731e-05
7.85841e-05
7.95219e-05
8.31388e-05
9.25439e-05
0.000116019
0.000173578
0.000289
0.000412446
0.000544189
0.000656485
0.000280512
0.000382115
0.000679049
0.00121341
0.00107399
0.000574206
0.000304749
0.00165943
0.00187307
0.00167501
0.001392
0.00114337
0.000952369
0.000791666
0.000649046
0.000522328
0.000413152
0.000323484
0.000253401
0.000200842
0.00016269
0.000135688
0.000116946
0.00010413
9.54718e-05
8.96753e-05
8.58245e-05
8.32831e-05
8.1613e-05
8.0527e-05
7.98163e-05
7.93486e-05
7.90397e-05
7.88346e-05
7.86977e-05
7.86057e-05
7.85436e-05
7.85016e-05
7.84728e-05
7.8452e-05
7.84295e-05
0.000185883
0.000172028
0.000161677
0.000154989
0.000151754
0.000151362
0.000152908
0.000155357
0.000157747
0.000159377
0.000159787
0.000158732
0.000156205
0.000152349
0.00014738
0.00014161
0.000135394
0.000129263
0.000123477
0.000118095
0.000113161
0.000108689
0.000104636
0.00010116
9.84479e-05
9.6901e-05
9.73581e-05
0.000101711
0.000114575
0.000146938
0.0002175
0.000325325
0.0004327
0.000502247
0.000414204
0.000470207
0.000858346
0.00149311
0.00184282
0.00184261
0.00171747
0.00155914
0.00142361
0.00132825
0.00123324
0.00114537
0.00104475
0.000920549
0.000781283
0.000641099
0.000513183
0.000405689
0.000320902
0.000257126
0.000210805
0.000178012
0.000155225
0.000139608
0.000129016
0.000121887
0.000117123
0.000113968
0.000111891
0.000110506
0.00010958
0.000108959
0.00010854
0.000108256
0.000108062
0.00010793
0.00010784
0.000107778
0.000107736
0.000107707
0.000107686
0.000187017
0.000176392
0.000172192
0.000174799
0.000183491
0.000196411
0.000211177
0.000225494
0.000237531
0.00024616
0.000250789
0.000251528
0.000248835
0.000243277
0.000235426
0.000226058
0.000215921
0.000206051
0.000196556
0.000187543
0.000179066
0.000171137
0.000163726
0.000156855
0.000150733
0.000145644
0.000142201
0.000141631
0.00014651
0.000162407
0.000199739
0.000267728
0.000356496
0.000431617
0.000442929
0.000447763
0.000490363
0.000542767
0.000611122
0.000724984
0.000890802
0.00109662
0.00131392
0.0014897
0.00158004
0.00156969
0.00146641
0.00129536
0.001091
0.000886475
0.000705052
0.000557325
0.000444279
0.000361538
0.000302837
0.000262064
0.000234137
0.000215188
0.000202419
0.000193864
0.00018821
0.000184427
0.000181869
0.000180135
0.000178953
0.000178147
0.000177594
0.000177213
0.000176949
0.000176768
0.000176643
0.000176558
0.000176501
0.000176467
0.000176456
0.000190574
0.000189724
0.000203101
0.000231058
0.000270525
0.000315027
0.00035829
0.000395419
0.000423992
0.000442969
0.000451821
0.000451899
0.000444944
0.000432856
0.000417472
0.000400431
0.000383275
0.000367007
0.000351593
0.000337214
0.0003239
0.000311581
0.00030014
0.000289564
0.000279978
0.00027175
0.000265533
0.000262428
0.000264276
0.000274282
0.000297911
0.000342121
0.000409004
0.00048786
0.000557501
0.000617037
0.00068271
0.000761907
0.000970614
0.00133466
0.0018038
0.00229251
0.00269798
0.00293232
0.00295365
0.00277624
0.00245499
0.00206129
0.00166275
0.00130872
0.00102274
0.00080721
0.000652569
0.000545214
0.000472201
0.000423105
0.00039027
0.000368364
0.000353873
0.000344228
0.000337694
0.000333225
0.000330153
0.000328046
0.000326594
0.000325589
0.000324892
0.000324409
0.000324074
0.000323844
0.000323687
0.000323582
0.000323517
0.000323488
0.000323506
0.000201916
0.00022903
0.000294296
0.000393329
0.000510877
0.000626322
0.000726525
0.000800779
0.000846995
0.00086704
0.000865333
0.000847754
0.000820161
0.000787639
0.000754117
0.000722329
0.000694231
0.000669105
0.000647333
0.000628946
0.000613733
0.00060143
0.000591857
0.000585114
0.000581618
0.000582297
0.00058869
0.000603089
0.000628758
0.000670279
0.000734056
0.000828656
0.000963783
0.00114758
0.00138721
0.00169558
0.00210074
0.00272706
0.00365294
0.00475437
0.00580029
0.00655082
0.00684661
0.00664587
0.0060228
0.00513159
0.00415022
0.00322801
0.00245755
0.00186871
0.00144719
0.00115875
0.000966823
0.000840981
0.000758852
0.00070514
0.000669912
0.000646807
0.000631232
0.000620648
0.00061337
0.000608378
0.000604977
0.000602642
0.000601036
0.000599935
0.000599183
0.000598674
0.000598332
0.000598107
0.000597962
0.000597876
0.000597838
0.000597852
0.000597946
0.000235959
0.000346289
0.000576452
0.000879972
0.00119109
0.00143538
0.00159518
0.00167023
0.00167423
0.0016283
0.00155386
0.00146839
0.00138402
0.00130811
0.00124437
0.00119405
0.00115566
0.00112791
0.00111039
0.00110255
0.00110413
0.00111537
0.00113724
0.00117172
0.00122215
0.00129371
0.00139407
0.00153436
0.0017304
0.00200453
0.00238781
0.00292272
0.00366599
0.00468961
0.00607807
0.00791645
0.0102378
0.0131974
0.0161042
0.0183208
0.0192523
0.018672
0.0167721
0.0140344
0.0110336
0.00825035
0.00597458
0.00428491
0.00311854
0.00235101
0.00186008
0.00155019
0.00135482
0.00123115
0.00115189
0.00110028
0.0010663
0.0010438
0.00102879
0.00101885
0.00101228
0.00100798
0.0010052
0.00100343
0.00100235
0.00100171
0.00100135
0.00100118
0.00100112
0.00100113
0.00100118
0.00100126
0.00100137
0.00100153
0.00100179
0.000332701
0.000737264
0.00154392
0.00233657
0.00283468
0.00304236
0.0030256
0.0028697
0.0026505
0.00241974
0.00220655
0.00202436
0.00187723
0.00176429
0.00168239
0.00162779
0.00159638
0.00158616
0.00159624
0.00162706
0.00168077
0.00176161
0.00187676
0.00203762
0.00226173
0.0025758
0.0030204
0.00365703
0.00457855
0.00592346
0.00789337
0.0107691
0.0149125
0.020731
0.0285916
0.0385574
0.0495142
0.0581917
0.0626446
0.0610977
0.0538533
0.0431116
0.0316976
0.0218244
0.0144376
0.00945172
0.00626259
0.00433373
0.00317401
0.00247647
0.00205392
0.00179385
0.00163227
0.00153119
0.00146658
0.00142435
0.00139769
0.00138127
0.00137148
0.00136602
0.0013633
0.00136229
0.00136229
0.00136286
0.00136371
0.00136466
0.00136559
0.00136646
0.00136722
0.00136789
0.00136845
0.00136894
0.00136938
0.00136984
0.00137033
)
;

boundaryField
{
    ibCylinder
    {
        type            immersedBoundaryEpsilonWallFunction;
        patchType       immersedBoundary;
        blending        stepwise;
        setDeadValue    true;
        deadValue       0.0002;
        value           nonuniform List<scalar> 0();
    }
    in
    {
        type            fixedValue;
        value           uniform 0.0002;
    }
    out
    {
        type            inletOutlet;
        inletValue      uniform 0.0002;
        value           nonuniform List<scalar> 
25
(
0.0013767
0.00100717
0.000603126
0.00032844
0.00018052
0.00011055
8.01759e-05
6.79139e-05
6.32895e-05
6.16526e-05
6.11062e-05
6.09351e-05
6.0892e-05
6.09121e-05
6.10346e-05
6.14655e-05
6.28487e-05
6.6982e-05
7.84295e-05
0.000107686
0.000176456
0.000323506
0.000597946
0.00100179
0.00137033
)
;
    }
    top
    {
        type            zeroGradient;
    }
    bottom
    {
        type            zeroGradient;
    }
    frontAndBack
    {
        type            empty;
    }
}


// ************************************************************************* //
