/*--------------------------------*- C++ -*----------------------------------*\
| =========                 |                                                 |
| \\      /  F ield         | OpenFOAM: The Open Source CFD Toolbox           |
|  \\    /   O peration     | Version:  2206                                  |
|   \\  /    A nd           | Website:  www.openfoam.com                      |
|    \\/     M anipulation  |                                                 |
\*---------------------------------------------------------------------------*/
FoamFile
{
    version     2.0;
    format      ascii;
    arch        "LSB;label=32;scalar=64";
    class       volScalarField;
    location    "0.7";
    object      k;
}
// * * * * * * * * * * * * * * * * * * * * * * * * * * * * * * * * * * * * * //

dimensions      [0 2 -2 0 0 0 0];

internalField   nonuniform List<scalar> 
1875
(
0.000201951
0.000327413
0.000544789
0.000761381
0.000923306
0.00102555
0.00107227
0.00107533
0.00104994
0.00100966
0.000964464
0.000920765
0.000882219
0.000850587
0.000826405
0.000809524
0.000799274
0.000795453
0.000798016
0.000807188
0.000823558
0.000848215
0.000882918
0.000930341
0.00099438
0.00108056
0.00119655
0.00135293
0.00156403
0.00184898
0.00223272
0.00274643
0.00342615
0.004308
0.00542032
0.00675662
0.00817766
0.00929109
0.00989172
0.00977552
0.00894518
0.00761046
0.00608075
0.00464144
0.00345879
0.00257562
0.00194752
0.001526
0.00124625
0.00106231
0.000942006
0.000863065
0.000811449
0.000777862
0.000755719
0.000740899
0.000731376
0.000725424
0.000721831
0.000719801
0.000718771
0.000718369
0.000718343
0.000718532
0.000718826
0.000719159
0.000719492
0.000719802
0.000720078
0.000720317
0.00072052
0.000720692
0.000720841
0.000720977
0.000721096
0.000164595
0.000200162
0.000269361
0.000362261
0.000464652
0.000556321
0.000629663
0.000680349
0.000708321
0.000717058
0.000711748
0.000697704
0.000679399
0.000660164
0.000642215
0.000626839
0.00061409
0.000603977
0.000596731
0.000592388
0.000590937
0.000592424
0.000597039
0.000605201
0.000617621
0.000635399
0.000660103
0.000693881
0.000739595
0.000801026
0.000883127
0.000992281
0.00113648
0.0013253
0.00156999
0.00188346
0.00227429
0.00276873
0.0032673
0.00368125
0.00391792
0.00392328
0.00369855
0.00329513
0.00279518
0.00228359
0.00182589
0.00145516
0.00117669
0.000977855
0.000840497
0.000747501
0.000685159
0.000643605
0.000615837
0.000597152
0.000584523
0.000575973
0.000570182
0.000566301
0.000563718
0.000562017
0.000560913
0.000560213
0.000559782
0.000559528
0.00055939
0.000559324
0.000559302
0.000559308
0.000559329
0.000559361
0.000559403
0.000559465
0.000559578
0.00015117
0.00016011
0.000180635
0.000212646
0.000253217
0.000296998
0.000339644
0.000376562
0.000405532
0.000425616
0.000437022
0.000440932
0.000439005
0.000433025
0.000424629
0.000415174
0.000405789
0.000396391
0.000387425
0.000379133
0.000371586
0.000364764
0.000358618
0.000353167
0.000348521
0.000344964
0.000342996
0.000343387
0.00034728
0.000356359
0.000373031
0.000400206
0.000439839
0.000491069
0.000551134
0.000620216
0.000704676
0.000830627
0.00101706
0.00124822
0.00148595
0.00168417
0.00180378
0.00182275
0.00174148
0.00158113
0.00137552
0.00116005
0.000962749
0.000798993
0.000672518
0.000579718
0.000513936
0.000468318
0.000437078
0.000415809
0.000401403
0.000391718
0.000385055
0.000380456
0.000377262
0.000375059
0.000373555
0.000372523
0.000371815
0.000371333
0.000371006
0.000370787
0.000370642
0.000370549
0.00037049
0.000370456
0.000370445
0.000370463
0.000370552
0.000146429
0.000145784
0.000149757
0.000158726
0.0001724
0.00018924
0.000207363
0.000224929
0.000240645
0.00025352
0.000262688
0.000268108
0.000270039
0.000268979
0.000265563
0.000260484
0.000254504
0.000248172
0.000241582
0.00023494
0.000228371
0.000221931
0.00021563
0.000209515
0.0002037
0.000198436
0.000194159
0.000191641
0.000192275
0.000198628
0.000215058
0.000246576
0.000293006
0.000344072
0.000383017
0.000406374
0.000421019
0.000428067
0.000463724
0.00053904
0.000646261
0.000769869
0.000886834
0.000972701
0.00100989
0.000993094
0.00092891
0.000832045
0.000720621
0.000611316
0.000515226
0.000437204
0.000377395
0.000333389
0.000301915
0.000279831
0.00026453
0.000254031
0.000246933
0.00024213
0.000238837
0.000236565
0.000234998
0.000233923
0.000233183
0.000232673
0.000232322
0.000232081
0.000231916
0.000231803
0.000231728
0.000231679
0.000231651
0.000231649
0.000231713
0.000144852
0.000140461
0.000138363
0.000138674
0.000141305
0.000145873
0.000151738
0.000158145
0.000164337
0.000169693
0.000173723
0.000176222
0.000177151
0.000176567
0.000174585
0.000171491
0.000167621
0.000163507
0.000159238
0.000154919
0.00015063
0.000146431
0.000142363
0.000138499
0.000135048
0.000132298
0.000130835
0.00013184
0.000137844
0.000154233
0.00019066
0.00025572
0.000339693
0.000413976
0.00044166
0.000450613
0.000468018
0.000473574
0.000475688
0.000486917
0.00051014
0.000546643
0.000593591
0.000638739
0.000668516
0.000674187
0.000652186
0.000605037
0.000540516
0.000468879
0.000399463
0.000338375
0.000288312
0.000249408
0.000220346
0.00019926
0.000184287
0.000173824
0.000166608
0.000161686
0.000158387
0.000156159
0.000154644
0.000153615
0.000152914
0.000152437
0.000152112
0.00015189
0.000151738
0.000151634
0.000151564
0.000151516
0.000151486
0.000151476
0.000151513
0.000144315
0.000138551
0.000134068
0.000130944
0.000129132
0.000128478
0.000128733
0.000129568
0.000130635
0.000131626
0.000132288
0.000132426
0.000131938
0.000130797
0.000129025
0.000126719
0.00012403
0.000121228
0.000118461
0.000115782
0.000113241
0.000110877
0.000108699
0.000106876
0.000105626
0.000105379
0.000107021
0.000112544
0.000126711
0.000160347
0.000231513
0.000343954
0.000460256
0.000548063
0.000530252
0.000566138
0.000789916
0.00109107
0.00123303
0.00120092
0.00109898
0.000970962
0.000844772
0.000746188
0.000667743
0.000610063
0.000560112
0.000507494
0.000450165
0.000390497
0.000332838
0.000281191
0.000237816
0.000203239
0.00017679
0.000157205
0.000143068
0.000133067
0.000126107
0.000121325
0.000118077
0.000115898
0.000114449
0.000113478
0.000112829
0.000112393
0.000112101
0.000111905
0.000111773
0.000111683
0.000111623
0.000111583
0.000111556
0.000111543
0.000111557
0.000144115
0.000137847
0.00013244
0.000127918
0.000124256
0.000121378
0.000119166
0.00011746
0.000116087
0.000114888
0.000113727
0.00011249
0.000111104
0.00010953
0.000107779
0.000105873
0.000103872
0.00010189
0.00010003
9.83272e-05
9.68169e-05
9.55278e-05
9.45336e-05
9.40709e-05
9.43615e-05
9.60235e-05
0.000100414
0.00011085
0.000135828
0.00019474
0.000312311
0.00045901
0.000606909
0.000748833
0.000607221
0.000525219
0.000570845
0.000774177
0.000903838
0.00086635
0.00084884
0.00141423
0.00135965
0.00113316
0.000908897
0.000734159
0.000609764
0.000514673
0.000435988
0.000367705
0.000307952
0.000256902
0.000214952
0.000181784
0.000156449
0.000137657
0.000124055
0.000114408
0.00010768
0.000103052
9.9907e-05
9.77907e-05
9.63779e-05
9.54456e-05
9.48299e-05
9.44231e-05
9.41546e-05
9.39772e-05
9.38599e-05
9.37823e-05
9.37308e-05
9.36967e-05
9.36743e-05
9.3661e-05
9.36603e-05
0.000144033
0.000137569
0.000131801
0.000126714
0.000122276
0.000118437
0.000115132
0.000112277
0.00010978
0.000107553
0.000105519
0.000103612
0.000101783
0.000100005
9.82666e-05
9.65744e-05
9.49474e-05
9.34329e-05
9.2087e-05
9.09357e-05
9.00118e-05
8.93672e-05
8.91022e-05
8.94202e-05
9.07047e-05
9.37997e-05
0.000100713
0.000116683
0.000155653
0.000247787
0.000409626
0.000563537
0.000788786
0.000664749
0.000605664
0.00015
0.00015
0.00015
0.00015
0.00015
0.000799323
0.00100506
0.00146342
0.00136638
0.00111212
0.000880046
0.000700647
0.000565225
0.000460167
0.000376076
0.000307669
0.000252272
0.000208315
0.000174341
0.000148751
0.000129941
0.000116398
0.000106825
0.000100162
9.55852e-05
9.24749e-05
9.0384e-05
8.89892e-05
8.80648e-05
8.74563e-05
8.70576e-05
8.67967e-05
8.66264e-05
8.65153e-05
8.64429e-05
8.63957e-05
8.6365e-05
8.63449e-05
8.63318e-05
8.63227e-05
0.000143995
0.000137448
0.000131532
0.00012621
0.000121444
0.00011719
0.0001134
0.000110022
0.000107004
0.000104294
0.000101845
9.96178e-05
9.75783e-05
9.57038e-05
9.39807e-05
9.24032e-05
9.09732e-05
8.97072e-05
8.86315e-05
8.77673e-05
8.71491e-05
8.68396e-05
8.69603e-05
8.77521e-05
8.97137e-05
9.39736e-05
0.000103357
0.000125602
0.000181666
0.000313658
0.000500344
0.000692358
0.000598719
0.00015
0.00015
0.00015
0.00015
0.00015
0.00015
0.00015
0.00015
0.000898039
0.000929829
0.00113446
0.00104247
0.000874971
0.000717531
0.000584872
0.000475181
0.000385025
0.000311635
0.000252941
0.000207095
0.000172166
0.000146163
0.000127206
0.000113633
0.000104067
9.74103e-05
9.28428e-05
8.97357e-05
8.76408e-05
8.62388e-05
8.53065e-05
8.46906e-05
8.42857e-05
8.40209e-05
8.38484e-05
8.37363e-05
8.36637e-05
8.36169e-05
8.35866e-05
8.35671e-05
8.35536e-05
8.35398e-05
0.000143977
0.000137391
0.000131408
0.000125983
0.000121074
0.000116636
0.000112628
0.000109012
0.000105751
0.000102811
0.000100162
9.77768e-05
9.56308e-05
9.37046e-05
9.19827e-05
9.0454e-05
8.91122e-05
8.79602e-05
8.70098e-05
8.62791e-05
8.58044e-05
8.5657e-05
8.59786e-05
8.70559e-05
8.95009e-05
9.47454e-05
0.000106523
0.000135436
0.000210501
0.000387707
0.000621453
0.000513114
0.000518984
0.00015
0.00015
0.00015
0.00015
0.00015
0.00015
0.00015
0.00015
0.00015
0.000674478
0.000686809
0.000748839
0.000711361
0.000632606
0.000542512
0.000454108
0.000373829
0.000304795
0.000248133
0.000203451
0.000169336
0.000143959
0.000125473
0.000112234
0.000102888
9.63688e-05
9.18706e-05
8.87948e-05
8.67081e-05
8.53041e-05
8.43648e-05
8.37398e-05
8.33264e-05
8.30544e-05
8.28765e-05
8.27605e-05
8.26854e-05
8.26368e-05
8.26056e-05
8.25854e-05
8.25712e-05
8.25549e-05
0.000143967
0.000137362
0.000131347
0.000125874
0.000120898
0.000116377
0.000112271
0.000108545
0.000105171
0.000102122
9.93758e-05
9.69113e-05
9.47092e-05
9.27514e-05
9.10218e-05
8.95066e-05
8.8196e-05
8.70868e-05
8.6184e-05
8.55042e-05
8.50855e-05
8.50067e-05
8.54262e-05
8.6671e-05
8.94542e-05
9.54879e-05
0.000109377
0.000144587
0.000238725
0.000462578
0.000718236
0.000547011
0.00015
0.00015
0.00015
0.00015
0.00015
0.00015
0.00015
0.00015
0.00015
0.00015
0.00015
0.000397245
0.000450806
0.000508198
0.000504622
0.000464184
0.000406255
0.000344043
0.000285852
0.000235805
0.000195372
0.000164048
0.000140523
0.000123259
0.000110809
0.000101957
9.57373e-05
9.14101e-05
8.84264e-05
8.63854e-05
8.49995e-05
8.40647e-05
8.34381e-05
8.30205e-05
8.27437e-05
8.25614e-05
8.2442e-05
8.23641e-05
8.23137e-05
8.22811e-05
8.226e-05
8.22451e-05
8.22275e-05
0.000143962
0.000137348
0.000131318
0.000125823
0.000120817
0.000116259
0.000112109
0.000108335
0.000104911
0.000101813
9.90226e-05
9.65211e-05
9.42914e-05
9.23161e-05
9.05788e-05
8.90644e-05
8.7761e-05
8.66635e-05
8.57736e-05
8.51071e-05
8.47036e-05
8.46465e-05
8.51064e-05
8.64377e-05
8.94256e-05
9.59891e-05
0.000111405
0.000151467
0.000261231
0.000519998
0.000714057
0.000605679
0.00015
0.00015
0.00015
0.00015
0.00015
0.00015
0.00015
0.00015
0.00015
0.00015
0.00015
0.000263326
0.000288421
0.00035982
0.000398313
0.000391934
0.000358271
0.00031207
0.00026446
0.000221558
0.000186013
0.000158003
0.000136676
0.000120853
0.000109331
0.00010106
9.51954e-05
9.10786e-05
8.8215e-05
8.62397e-05
8.48872e-05
8.39678e-05
8.33468e-05
8.293e-05
8.2652e-05
8.24677e-05
8.23463e-05
8.22667e-05
8.2215e-05
8.21814e-05
8.21595e-05
8.21441e-05
8.21258e-05
0.000143961
0.000137344
0.000131309
0.000125808
0.000120794
0.000116224
0.000112061
0.000108274
0.000104835
0.000101723
9.89197e-05
9.64072e-05
9.4169e-05
9.2188e-05
9.04476e-05
8.89323e-05
8.76299e-05
8.65336e-05
8.56447e-05
8.49789e-05
8.45763e-05
8.4522e-05
8.49906e-05
8.63468e-05
8.94025e-05
9.61564e-05
0.000112153
0.000154142
0.000270088
0.000538601
0.000669289
0.000600495
0.00015
0.00015
0.00015
0.00015
0.00015
0.00015
0.00015
0.00015
0.00015
0.00015
0.00015
0.000219666
0.000236363
0.000301983
0.000350622
0.000356345
0.000332597
0.000293683
0.000251421
0.00021248
0.000179734
0.000153819
0.00013394
0.000119102
0.000108234
0.000100388
9.47911e-05
9.08391e-05
8.80744e-05
8.61563e-05
8.48358e-05
8.39332e-05
8.33205e-05
8.29073e-05
8.26304e-05
8.24459e-05
8.23239e-05
8.22437e-05
8.21912e-05
8.21571e-05
8.21348e-05
8.2119e-05
8.21004e-05
0.000143962
0.000137348
0.000131318
0.000125823
0.000120817
0.000116259
0.000112108
0.000108335
0.00010491
0.000101811
9.90199e-05
9.65172e-05
9.4286e-05
9.23093e-05
9.05705e-05
8.90546e-05
8.775e-05
8.66513e-05
8.576e-05
8.5092e-05
8.46866e-05
8.46272e-05
8.50837e-05
8.64101e-05
8.9389e-05
9.59309e-05
0.00011128
0.000151126
0.000260382
0.000518857
0.000711178
0.000605322
0.00015
0.00015
0.00015
0.00015
0.00015
0.00015
0.00015
0.00015
0.00015
0.00015
0.00015
0.000257058
0.000280394
0.000349293
0.000385788
0.000378711
0.000345518
0.000300643
0.00025484
0.000213889
0.000180182
0.000153751
0.000133689
0.000118824
0.000107993
0.000100204
9.46617e-05
9.07549e-05
8.80239e-05
8.61293e-05
8.48245e-05
8.3932e-05
8.33254e-05
8.29158e-05
8.26408e-05
8.24574e-05
8.23358e-05
8.22557e-05
8.22032e-05
8.21691e-05
8.21467e-05
8.21308e-05
8.2112e-05
0.000143967
0.000137362
0.000131347
0.000125874
0.000120898
0.000116377
0.00011227
0.000108543
0.000105167
0.000102115
9.9365e-05
9.68955e-05
9.46876e-05
9.27237e-05
9.09884e-05
8.94681e-05
8.81535e-05
8.70412e-05
8.61357e-05
8.54535e-05
8.50323e-05
8.49501e-05
8.53648e-05
8.66019e-05
8.93703e-05
9.53667e-05
0.000109136
0.00014394
0.000236989
0.000459591
0.000713265
0.000551821
0.00015
0.00015
0.00015
0.00015
0.00015
0.00015
0.00015
0.00015
0.00015
0.00015
0.00015
0.000380658
0.000429755
0.000484576
0.000479682
0.000439898
0.000384026
0.000324737
0.00026986
0.000223137
0.000185745
0.000157009
0.000135555
0.000119864
0.000108557
0.000100504
9.48236e-05
9.08485e-05
8.80873e-05
8.61824e-05
8.48765e-05
8.39868e-05
8.3384e-05
8.29779e-05
8.27059e-05
8.25247e-05
8.24047e-05
8.23257e-05
8.2274e-05
8.22402e-05
8.22181e-05
8.22023e-05
8.21837e-05
0.000143977
0.000137391
0.000131408
0.000125983
0.000121073
0.000116635
0.000112625
0.000109006
0.000105739
0.000102791
0.000100129
9.77287e-05
9.55657e-05
9.36218e-05
9.18832e-05
9.03403e-05
8.89879e-05
8.7829e-05
8.68744e-05
8.61418e-05
8.56663e-05
8.55185e-05
8.58385e-05
8.6911e-05
8.93431e-05
9.45482e-05
0.000106191
0.00013464
0.000208393
0.000383638
0.000617539
0.000521444
0.00052713
0.00015
0.00015
0.00015
0.00015
0.00015
0.00015
0.00015
0.00015
0.00015
0.000650007
0.000649024
0.000709969
0.000673104
0.000596788
0.000510315
0.000426139
0.000350276
0.000285589
0.000233007
0.000191957
0.000160905
0.000137976
0.000121356
0.000109478
0.000101087
9.52143e-05
9.11384e-05
8.83296e-05
8.64057e-05
8.5097e-05
8.4211e-05
8.36139e-05
8.32136e-05
8.29467e-05
8.27696e-05
8.26527e-05
8.25759e-05
8.25256e-05
8.24929e-05
8.24714e-05
8.24561e-05
8.24377e-05
0.000143995
0.000137448
0.000131532
0.00012621
0.000121444
0.000117188
0.000113393
0.000110007
0.000106974
0.000104241
0.000101762
9.9497e-05
9.74153e-05
9.54975e-05
9.37338e-05
9.21223e-05
9.06675e-05
8.93867e-05
8.83047e-05
8.7441e-05
8.68284e-05
8.65277e-05
8.66582e-05
8.74579e-05
8.942e-05
9.3656e-05
0.000102929
0.000124768
0.000179654
0.000309712
0.000497051
0.000693872
0.000609187
0.00015
0.00015
0.00015
0.00015
0.00015
0.00015
0.00015
0.00015
0.000863416
0.000880767
0.00107213
0.000988905
0.000828464
0.000677451
0.000550512
0.000445993
0.000360619
0.000291711
0.00023717
0.00019503
0.000163241
0.000139765
0.000122744
0.000110589
0.000102021
9.60404e-05
9.19154e-05
8.90881e-05
8.7164e-05
8.58621e-05
8.49859e-05
8.43995e-05
8.40086e-05
8.37495e-05
8.35782e-05
8.34654e-05
8.33914e-05
8.33431e-05
8.33115e-05
8.32908e-05
8.32759e-05
8.3258e-05
0.000144033
0.000137569
0.000131801
0.000126714
0.000122275
0.000118434
0.00011512
0.000112246
0.000109717
0.00010744
0.000105338
0.000103349
0.000101428
9.95567e-05
9.77325e-05
9.59686e-05
9.42899e-05
9.27459e-05
9.13896e-05
9.02437e-05
8.93378e-05
8.87203e-05
8.84879e-05
8.88395e-05
9.01531e-05
9.32583e-05
0.000100115
0.000115809
0.000153939
0.000244715
0.000405679
0.000562853
0.000794645
0.000683753
0.000623295
0.00015
0.00015
0.00015
0.00015
0.00015
0.000789063
0.000961605
0.00138552
0.00130446
0.00106375
0.000840245
0.000666332
0.000534725
0.000432994
0.000352375
0.000287708
0.000236131
0.000195774
0.000164939
0.000141907
0.000125064
0.000112965
0.000104405
9.84292e-05
9.4302e-05
9.1477e-05
8.95615e-05
8.8271e-05
8.74064e-05
8.68305e-05
8.64486e-05
8.61957e-05
8.60287e-05
8.59186e-05
8.58462e-05
8.57987e-05
8.57675e-05
8.57469e-05
8.57322e-05
8.5715e-05
0.000144115
0.000137847
0.000132441
0.000127921
0.000124259
0.000121378
0.000119151
0.00011741
0.000115973
0.000114674
0.000113379
0.00011198
0.000110418
0.000108667
0.000106754
0.000104716
0.000102621
0.000100585
9.87085e-05
9.70196e-05
9.55468e-05
9.43126e-05
9.33849e-05
9.29944e-05
9.33567e-05
9.50784e-05
9.94849e-05
0.000109795
0.000134281
0.000192277
0.000309151
0.000457716
0.000613119
0.000765174
0.000630114
0.000549852
0.000597785
0.000804237
0.00093043
0.00087314
0.000829478
0.00136699
0.00132228
0.00110634
0.000885712
0.000710294
0.000584021
0.000487617
0.000409189
0.000342887
0.000286395
0.000239208
0.000201091
0.000171309
0.000148723
0.000132026
0.000119943
0.000111351
0.000105332
0.000101168
9.83165e-05
9.63825e-05
9.50799e-05
9.42125e-05
9.36344e-05
9.32491e-05
9.29927e-05
9.28222e-05
9.27089e-05
9.26336e-05
9.25835e-05
9.25504e-05
9.25282e-05
9.25128e-05
9.24965e-05
0.000144315
0.000138552
0.00013407
0.000130952
0.000129149
0.000128498
0.000128734
0.00012951
0.000130459
0.000131267
0.000131687
0.000131537
0.000130744
0.000129306
0.00012727
0.000124755
0.000121922
0.000119042
0.000116256
0.000113605
0.000111129
0.000108855
0.000106783
0.000105076
0.000103943
0.000103806
0.000105531
0.000111056
0.000125021
0.000158186
0.000229133
0.000343211
0.000465409
0.000563936
0.000557763
0.000597987
0.000825951
0.0011297
0.00127115
0.00123872
0.00113143
0.000991534
0.000855931
0.000746906
0.000656672
0.000588563
0.000531102
0.000474697
0.000417277
0.000360406
0.00030724
0.00026062
0.000221971
0.000191371
0.000168017
0.000150703
0.00013816
0.000129238
0.000122988
0.000118661
0.000115699
0.000113698
0.000112356
0.000111451
0.000110841
0.00011043
0.000110153
0.000109967
0.000109841
0.000109756
0.000109699
0.000109661
0.000109635
0.000109618
0.000109605
0.000144852
0.000140462
0.000138372
0.000138704
0.000141367
0.000145959
0.000151805
0.000158113
0.0001641
0.000169141
0.000172766
0.000174804
0.000175265
0.000174247
0.000171903
0.000168538
0.000164495
0.000160302
0.00015603
0.000151766
0.000147574
0.0001435
0.00013957
0.000135851
0.000132541
0.000129925
0.000128574
0.000129647
0.000135614
0.000151835
0.000188287
0.000254735
0.000343233
0.000425825
0.000463054
0.00047723
0.000498108
0.00050754
0.000509865
0.000517276
0.000532994
0.000557876
0.00059033
0.000619818
0.000635324
0.000630584
0.000603452
0.00055649
0.000496347
0.000431552
0.000369718
0.000315688
0.000271494
0.000237089
0.000211274
0.000192428
0.000178944
0.000169446
0.00016284
0.000158298
0.000155231
0.000153145
0.000151718
0.000150743
0.000150076
0.000149621
0.000149311
0.000149098
0.000148953
0.000148854
0.000148787
0.000148742
0.000148712
0.000148696
0.000148692
0.000146429
0.000145787
0.000149784
0.000158814
0.000172578
0.000189488
0.00020759
0.000224981
0.000240338
0.000252692
0.000261231
0.00026599
0.000267302
0.00026572
0.000261912
0.000256579
0.00025047
0.000244111
0.000237566
0.000231019
0.000224572
0.000218264
0.000212094
0.000206101
0.000200393
0.000195214
0.000190996
0.000188497
0.000189087
0.000195326
0.000211733
0.000243966
0.000292989
0.00034924
0.000394788
0.000423062
0.000440164
0.000446667
0.000477825
0.000544298
0.000637867
0.000743835
0.00084179
0.000910968
0.000937201
0.000917019
0.000856756
0.000769149
0.000669588
0.00057224
0.000486556
0.000416702
0.000362837
0.000322915
0.000294131
0.000273758
0.000259522
0.000249669
0.000242959
0.000238386
0.000235228
0.00023304
0.000231523
0.000230478
0.000229757
0.00022926
0.000228917
0.000228682
0.00022852
0.00022841
0.000228337
0.000228289
0.00022826
0.000228251
0.000228271
0.000151168
0.00016012
0.00018071
0.000212873
0.000253647
0.000297566
0.000340145
0.000376708
0.000405046
0.000424313
0.00043485
0.000437961
0.000435392
0.000428959
0.000420298
0.000410733
0.00040135
0.000392016
0.000383149
0.000374965
0.000367517
0.000360769
0.000354666
0.00034922
0.000344536
0.00034089
0.000338771
0.000338935
0.000342502
0.000351139
0.000367298
0.00039412
0.000434026
0.000486498
0.00054829
0.000618059
0.000700708
0.000820955
0.000995961
0.0012089
0.00142351
0.00159823
0.00169974
0.00171054
0.00163247
0.00148486
0.00129749
0.00110127
0.00092095
0.000770411
0.000653321
0.000566746
0.000504889
0.000461652
0.000431811
0.000411345
0.00039739
0.000387954
0.000381422
0.000376893
0.000373735
0.000371549
0.000370051
0.00036902
0.000368312
0.000367827
0.000367498
0.000367277
0.00036713
0.000367034
0.000366974
0.000366941
0.00036693
0.000366947
0.000367019
0.000164597
0.000200205
0.000269572
0.000362807
0.000465557
0.000557339
0.000630365
0.000680306
0.000707261
0.000714934
0.000708698
0.000693969
0.000675239
0.000655803
0.000637814
0.000622494
0.000609839
0.000599824
0.000592657
0.00058836
0.000586909
0.000588344
0.000592846
0.000600822
0.00061297
0.000630364
0.000654538
0.00068759
0.000732311
0.00079239
0.000872679
0.000979472
0.00112069
0.0013057
0.00154513
0.0018506
0.00222903
0.00270681
0.00318184
0.00356979
0.0037843
0.00377854
0.00355789
0.00317248
0.00269868
0.00221425
0.00177967
0.00142607
0.00115885
0.000966827
0.000833345
0.000742441
0.000681177
0.000640142
0.000612596
0.000593986
0.000581368
0.000572801
0.000566981
0.000563067
0.000560454
0.000558725
0.000557597
0.000556877
0.00055643
0.000556164
0.000556014
0.000555939
0.000555912
0.000555912
0.000555931
0.000555963
0.000556015
0.000556104
0.000556274
0.000201988
0.000327632
0.000545473
0.000762585
0.000924672
0.0010265
0.00107229
0.00107417
0.00104762
0.00100642
0.000960597
0.000916553
0.000877874
0.000846242
0.000822124
0.000805317
0.000795126
0.000791328
0.000793872
0.00080297
0.000819208
0.000843664
0.000878089
0.000925138
0.000988683
0.00107421
0.00118937
0.00134467
0.00155437
0.00183756
0.00221912
0.00273023
0.00340706
0.00428595
0.00539542
0.00672915
0.00814773
0.00925654
0.00985234
0.0097326
0.0089017
0.00757026
0.00604727
0.0046164
0.00344191
0.00256514
0.00194129
0.00152215
0.00124351
0.00105995
0.000939655
0.000860574
0.000808771
0.000775
0.000752699
0.000737754
0.000728131
0.000722099
0.000718444
0.000716365
0.000715296
0.000714863
0.000714815
0.000714985
0.000715265
0.000715588
0.000715912
0.000716216
0.000716487
0.000716723
0.000716927
0.000717108
0.000717288
0.000717503
0.000717801
)
;

boundaryField
{
    ibCylinder
    {
        type            immersedBoundaryKqRWallFunction;
        patchType       immersedBoundary;
        setDeadValue    true;
        deadValue       0.00015;
        value           nonuniform List<scalar> 0();
    }
    in
    {
        type            fixedValue;
        value           uniform 0.00015;
    }
    out
    {
        type            inletOutlet;
        inletValue      uniform 0.00015;
        value           nonuniform List<scalar> 
25
(
0.000721096
0.000559578
0.000370552
0.000231713
0.000151513
0.000111557
9.36603e-05
8.63227e-05
8.35398e-05
8.25549e-05
8.22275e-05
8.21258e-05
8.21004e-05
8.2112e-05
8.21837e-05
8.24377e-05
8.3258e-05
8.5715e-05
9.24965e-05
0.000109605
0.000148692
0.000228271
0.000367019
0.000556274
0.000717801
)
;
    }
    top
    {
        type            zeroGradient;
    }
    bottom
    {
        type            zeroGradient;
    }
    frontAndBack
    {
        type            empty;
    }
}


// ************************************************************************* //
