/*--------------------------------*- C++ -*----------------------------------*\
| =========                 |                                                 |
| \\      /  F ield         | OpenFOAM: The Open Source CFD Toolbox           |
|  \\    /   O peration     | Version:  2206                                  |
|   \\  /    A nd           | Website:  www.openfoam.com                      |
|    \\/     M anipulation  |                                                 |
\*---------------------------------------------------------------------------*/
FoamFile
{
    version     2.0;
    format      ascii;
    arch        "LSB;label=32;scalar=64";
    class       volScalarField;
    location    "0.7";
    object      nut;
}
// * * * * * * * * * * * * * * * * * * * * * * * * * * * * * * * * * * * * * //

dimensions      [0 2 -1 0 0 0 0];

internalField   nonuniform List<scalar> 
1875
(
1.10355e-05
1.30957e-05
1.73215e-05
2.23586e-05
2.70957e-05
3.11265e-05
3.41814e-05
3.62016e-05
3.73211e-05
3.77631e-05
3.77551e-05
3.74871e-05
3.71003e-05
3.66917e-05
3.63224e-05
3.6026e-05
3.58139e-05
3.57033e-05
3.57082e-05
3.58408e-05
3.61145e-05
3.65469e-05
3.71625e-05
3.79965e-05
3.90969e-05
4.05272e-05
4.23691e-05
4.47269e-05
4.77334e-05
5.15582e-05
5.64174e-05
6.2577e-05
7.03445e-05
8.00335e-05
9.19098e-05
0.000105955
0.00012091
0.000132776
0.000139734
0.000139826
0.000132714
0.000119883
0.000103997
8.79439e-05
7.38119e-05
6.25526e-05
5.40377e-05
4.80163e-05
4.37898e-05
4.08232e-05
3.87271e-05
3.72287e-05
3.61651e-05
3.54212e-05
3.49e-05
3.45334e-05
3.42885e-05
3.41301e-05
3.40311e-05
3.39729e-05
3.39415e-05
3.39273e-05
3.39238e-05
3.39266e-05
3.39327e-05
3.39402e-05
3.3948e-05
3.39554e-05
3.39622e-05
3.39681e-05
3.39733e-05
3.39779e-05
3.39823e-05
3.39873e-05
3.39929e-05
1.03334e-05
1.04153e-05
1.13371e-05
1.34408e-05
1.63397e-05
1.94293e-05
2.23752e-05
2.49142e-05
2.68973e-05
2.82972e-05
2.91741e-05
2.96337e-05
2.97909e-05
2.97496e-05
2.95941e-05
2.93861e-05
2.91463e-05
2.88947e-05
2.86567e-05
2.8446e-05
2.82679e-05
2.8123e-05
2.80095e-05
2.79262e-05
2.78732e-05
2.78543e-05
2.78787e-05
2.79637e-05
2.81394e-05
2.84556e-05
2.89892e-05
2.98444e-05
3.1146e-05
3.30319e-05
3.56662e-05
3.92728e-05
4.40837e-05
5.0489e-05
5.72762e-05
6.34906e-05
6.79996e-05
6.99427e-05
6.89901e-05
6.54152e-05
6.00083e-05
5.38113e-05
4.78169e-05
4.26849e-05
3.86766e-05
3.57161e-05
3.35779e-05
3.20289e-05
3.08927e-05
3.00574e-05
2.94453e-05
2.90002e-05
2.86792e-05
2.84497e-05
2.82878e-05
2.8176e-05
2.80998e-05
2.80486e-05
2.80149e-05
2.79931e-05
2.79795e-05
2.79714e-05
2.79668e-05
2.79644e-05
2.79636e-05
2.79636e-05
2.79641e-05
2.79651e-05
2.79669e-05
2.79706e-05
2.79809e-05
1.01858e-05
1.00743e-05
9.98318e-06
1.0358e-05
1.13126e-05
1.26919e-05
1.42967e-05
1.59202e-05
1.74225e-05
1.87069e-05
1.97198e-05
2.04517e-05
2.09238e-05
2.11754e-05
2.12543e-05
2.12077e-05
2.10815e-05
2.08768e-05
2.06203e-05
2.0331e-05
2.0019e-05
1.96882e-05
1.93383e-05
1.89681e-05
1.85768e-05
1.81682e-05
1.77521e-05
1.73492e-05
1.69971e-05
1.67609e-05
1.674e-05
1.70417e-05
1.76824e-05
1.8502e-05
1.92493e-05
1.98608e-05
2.05498e-05
2.18124e-05
2.41613e-05
2.75905e-05
3.16095e-05
3.55067e-05
3.85876e-05
4.03317e-05
4.05112e-05
3.92359e-05
3.68954e-05
3.40209e-05
3.11276e-05
2.85738e-05
2.6514e-05
2.49413e-05
2.37669e-05
2.28907e-05
2.22346e-05
2.17441e-05
2.13828e-05
2.11225e-05
2.09319e-05
2.0794e-05
2.06949e-05
2.06252e-05
2.0577e-05
2.05437e-05
2.0521e-05
2.05055e-05
2.04952e-05
2.04884e-05
2.04841e-05
2.04813e-05
2.04797e-05
2.0479e-05
2.04791e-05
2.04812e-05
2.04896e-05
1.01259e-05
1.00821e-05
9.94026e-06
9.81921e-06
9.89718e-06
1.02394e-05
1.08015e-05
1.14982e-05
1.22477e-05
1.29774e-05
1.36218e-05
1.41481e-05
1.45402e-05
1.47973e-05
1.49305e-05
1.4959e-05
1.49095e-05
1.4802e-05
1.46424e-05
1.4443e-05
1.4213e-05
1.39587e-05
1.36839e-05
1.33931e-05
1.30938e-05
1.28e-05
1.25366e-05
1.23513e-05
1.23375e-05
1.26789e-05
1.36957e-05
1.57516e-05
1.87896e-05
2.2004e-05
2.40924e-05
2.45096e-05
2.36164e-05
2.1584e-05
1.94455e-05
1.85947e-05
1.92542e-05
2.09993e-05
2.3223e-05
2.53219e-05
2.68125e-05
2.74189e-05
2.70912e-05
2.59727e-05
2.43419e-05
2.25266e-05
2.0798e-05
1.93167e-05
1.81347e-05
1.72304e-05
1.65515e-05
1.60445e-05
1.5667e-05
1.53884e-05
1.51878e-05
1.50443e-05
1.49411e-05
1.48674e-05
1.48154e-05
1.47794e-05
1.47546e-05
1.47376e-05
1.47261e-05
1.47183e-05
1.47132e-05
1.47098e-05
1.47077e-05
1.47064e-05
1.47059e-05
1.47068e-05
1.47126e-05
1.00974e-05
1.00665e-05
1.00069e-05
9.90331e-06
9.79665e-06
9.75176e-06
9.80674e-06
9.96166e-06
1.01897e-05
1.04546e-05
1.07204e-05
1.09609e-05
1.11587e-05
1.13026e-05
1.13871e-05
1.14165e-05
1.13999e-05
1.1355e-05
1.12847e-05
1.11937e-05
1.10869e-05
1.09688e-05
1.0844e-05
1.07203e-05
1.06137e-05
1.05486e-05
1.0573e-05
1.07863e-05
1.14071e-05
1.29081e-05
1.61513e-05
2.20074e-05
2.97866e-05
3.74537e-05
4.24267e-05
4.36795e-05
4.28604e-05
3.97642e-05
3.53288e-05
3.03108e-05
2.598e-05
2.31903e-05
2.19667e-05
2.17529e-05
2.19362e-05
2.20706e-05
2.18619e-05
2.11847e-05
2.00787e-05
1.87035e-05
1.72603e-05
1.59175e-05
1.47775e-05
1.38745e-05
1.31934e-05
1.26942e-05
1.23324e-05
1.20708e-05
1.1882e-05
1.17468e-05
1.1652e-05
1.15853e-05
1.15385e-05
1.15061e-05
1.14839e-05
1.14689e-05
1.14589e-05
1.14522e-05
1.14478e-05
1.14449e-05
1.14431e-05
1.1442e-05
1.14415e-05
1.14418e-05
1.1445e-05
1.00838e-05
1.0043e-05
1.00058e-05
9.95696e-06
9.88943e-06
9.81268e-06
9.74579e-06
9.70527e-06
9.69769e-06
9.71963e-06
9.76178e-06
9.81248e-06
9.86151e-06
9.9011e-06
9.92608e-06
9.93575e-06
9.93256e-06
9.92297e-06
9.91052e-06
9.89641e-06
9.8825e-06
9.87112e-06
9.86469e-06
9.87685e-06
9.92719e-06
1.00546e-05
1.03396e-05
1.09638e-05
1.2357e-05
1.54885e-05
2.20704e-05
3.31806e-05
4.5695e-05
5.74731e-05
6.72594e-05
6.58427e-05
6.89648e-05
7.47889e-05
7.69506e-05
7.26092e-05
6.45241e-05
5.4078e-05
4.36017e-05
3.52624e-05
2.93311e-05
2.55214e-05
2.29943e-05
2.1042e-05
1.93001e-05
1.76344e-05
1.60563e-05
1.4637e-05
1.34391e-05
1.24898e-05
1.17793e-05
1.12711e-05
1.09178e-05
1.06747e-05
1.05065e-05
1.0389e-05
1.03066e-05
1.0249e-05
1.02092e-05
1.01818e-05
1.01632e-05
1.01509e-05
1.01428e-05
1.01376e-05
1.01343e-05
1.01323e-05
1.01311e-05
1.01304e-05
1.01301e-05
1.01302e-05
1.01315e-05
1.00773e-05
1.00266e-05
9.98527e-06
9.94867e-06
9.91034e-06
9.86617e-06
9.81641e-06
9.76487e-06
9.71656e-06
9.67543e-06
9.64345e-06
9.62043e-06
9.60511e-06
9.59549e-06
9.59098e-06
9.59081e-06
9.59534e-06
9.60544e-06
9.62158e-06
9.64389e-06
9.67297e-06
9.71022e-06
9.76155e-06
9.84547e-06
9.98459e-06
1.02359e-05
1.07253e-05
1.17556e-05
1.40807e-05
1.94195e-05
3.0402e-05
4.69253e-05
6.3604e-05
8.15802e-05
0.000123907
6.91043e-05
4.60422e-05
4.69611e-05
7.13454e-05
0.000118827
0.000204999
0.000105751
8.48065e-05
6.49632e-05
4.92623e-05
3.81175e-05
3.07347e-05
2.57254e-05
2.21131e-05
1.93245e-05
1.70661e-05
1.52186e-05
1.37408e-05
1.26025e-05
1.17629e-05
1.11682e-05
1.0759e-05
1.04803e-05
1.02889e-05
1.01552e-05
1.00603e-05
9.9928e-06
9.94496e-06
9.9115e-06
9.88851e-06
9.87303e-06
9.86283e-06
9.85628e-06
9.85217e-06
9.84968e-06
9.84823e-06
9.84742e-06
9.84702e-06
9.84689e-06
9.84712e-06
1.00741e-05
1.00174e-05
9.96919e-06
9.92881e-06
9.8941e-06
9.86233e-06
9.83119e-06
9.79952e-06
9.76746e-06
9.73618e-06
9.70741e-06
9.68275e-06
9.6635e-06
9.65061e-06
9.64479e-06
9.64653e-06
9.65606e-06
9.67318e-06
9.69738e-06
9.72885e-06
9.76878e-06
9.82064e-06
9.89281e-06
1.00035e-05
1.01888e-05
1.05282e-05
1.12082e-05
1.26994e-05
1.6208e-05
2.4374e-05
3.99235e-05
6.17065e-05
8.32628e-05
8.08156e-05
1.89464e-05
1e-06
1e-06
1e-06
1e-06
1e-06
4.92967e-05
0.00014607
0.000107308
8.76973e-05
6.79395e-05
5.22666e-05
4.09139e-05
3.2902e-05
2.71573e-05
2.29012e-05
1.96481e-05
1.71229e-05
1.51736e-05
1.36991e-05
1.26118e-05
1.1829e-05
1.12729e-05
1.08778e-05
1.05939e-05
1.03876e-05
1.02366e-05
1.01267e-05
1.00476e-05
9.99138e-06
9.9521e-06
9.92512e-06
9.90694e-06
9.89489e-06
9.88707e-06
9.88208e-06
9.87897e-06
9.87708e-06
9.87595e-06
9.87531e-06
9.87492e-06
1.00725e-05
1.00126e-05
9.95977e-06
9.91429e-06
9.87575e-06
9.84328e-06
9.81579e-06
9.7922e-06
9.77179e-06
9.75434e-06
9.74007e-06
9.72945e-06
9.72304e-06
9.72143e-06
9.72505e-06
9.73421e-06
9.74895e-06
9.76903e-06
9.79433e-06
9.82573e-06
9.86555e-06
9.91903e-06
9.99727e-06
1.0123e-05
1.0344e-05
1.0767e-05
1.16524e-05
1.36797e-05
1.86026e-05
2.99718e-05
4.86331e-05
8.15879e-05
7.1842e-05
1e-06
1e-06
1e-06
1e-06
1e-06
1e-06
1e-06
1e-06
3.16306e-05
0.000146828
9.11699e-05
7.4062e-05
5.93131e-05
4.76855e-05
3.8807e-05
3.20207e-05
2.678e-05
2.26967e-05
1.9513e-05
1.7054e-05
1.51843e-05
1.37858e-05
1.27524e-05
1.1992e-05
1.1431e-05
1.10149e-05
1.07066e-05
1.04789e-05
1.03123e-05
1.01921e-05
1.01066e-05
1.00466e-05
1.00052e-05
9.97691e-06
9.95793e-06
9.94536e-06
9.93714e-06
9.93184e-06
9.92848e-06
9.92638e-06
9.92508e-06
9.92425e-06
1.00716e-05
1.00101e-05
9.95468e-06
9.9058e-06
9.86353e-06
9.82778e-06
9.79832e-06
9.77485e-06
9.75706e-06
9.74471e-06
9.7376e-06
9.73553e-06
9.73827e-06
9.74554e-06
9.75699e-06
9.77225e-06
9.791e-06
9.813e-06
9.83855e-06
9.86907e-06
9.90782e-06
9.96155e-06
1.0044e-05
1.01829e-05
1.04373e-05
1.0943e-05
1.20398e-05
1.46341e-05
2.10441e-05
3.55646e-05
5.69362e-05
9.60652e-05
1.05435e-05
1e-06
1e-06
1e-06
1e-06
1e-06
1e-06
1e-06
1e-06
1e-06
5.64748e-05
9.40598e-05
6.75132e-05
5.70644e-05
4.85486e-05
4.11533e-05
3.48184e-05
2.9486e-05
2.50766e-05
2.15062e-05
1.86802e-05
1.64886e-05
1.48161e-05
1.35525e-05
1.26022e-05
1.18887e-05
1.13544e-05
1.09567e-05
1.06633e-05
1.04493e-05
1.02952e-05
1.01857e-05
1.01088e-05
1.00555e-05
1.00189e-05
9.99419e-06
9.97764e-06
9.9667e-06
9.95954e-06
9.95492e-06
9.95197e-06
9.9501e-06
9.94894e-06
1.00712e-05
1.00088e-05
9.952e-06
9.90122e-06
9.85662e-06
9.81834e-06
9.78653e-06
9.76131e-06
9.74277e-06
9.73092e-06
9.72562e-06
9.72651e-06
9.73302e-06
9.74438e-06
9.7597e-06
9.77814e-06
9.79902e-06
9.82205e-06
9.84767e-06
9.87759e-06
9.91571e-06
9.96991e-06
1.00559e-05
1.0206e-05
1.04892e-05
1.10673e-05
1.23541e-05
1.54645e-05
2.32172e-05
4.01694e-05
5.8374e-05
5.17444e-05
1e-06
1e-06
1e-06
1e-06
1e-06
1e-06
1e-06
1e-06
1e-06
1e-06
1e-06
9.0354e-05
5.18194e-05
4.86172e-05
4.49702e-05
4.02813e-05
3.52899e-05
3.05078e-05
2.62344e-05
2.25976e-05
1.96284e-05
1.72723e-05
1.54408e-05
1.40359e-05
1.29673e-05
1.21597e-05
1.15535e-05
1.11024e-05
1.07702e-05
1.05281e-05
1.03538e-05
1.02298e-05
1.01425e-05
1.00818e-05
1.004e-05
1.00115e-05
9.99233e-06
9.97955e-06
9.97113e-06
9.96564e-06
9.9621e-06
9.95984e-06
9.95844e-06
1.0071e-05
1.00081e-05
9.9507e-06
9.89899e-06
9.85319e-06
9.81353e-06
9.78027e-06
9.75371e-06
9.73413e-06
9.72172e-06
9.71643e-06
9.71792e-06
9.72551e-06
9.73824e-06
9.75497e-06
9.7746e-06
9.79626e-06
9.81961e-06
9.84509e-06
9.87455e-06
9.91221e-06
9.96668e-06
1.00551e-05
1.02125e-05
1.05153e-05
1.11442e-05
1.25668e-05
1.60491e-05
2.47307e-05
4.24788e-05
4.83773e-05
3.06119e-05
1e-06
1e-06
1e-06
1e-06
1e-06
1e-06
1e-06
1e-06
1e-06
1e-06
1e-06
4.69568e-05
3.7564e-05
4.00551e-05
4.0384e-05
3.80724e-05
3.44259e-05
3.03238e-05
2.63604e-05
2.28442e-05
1.99027e-05
1.75288e-05
1.56591e-05
1.42119e-05
1.31043e-05
1.22644e-05
1.1633e-05
1.11627e-05
1.0816e-05
1.05631e-05
1.03806e-05
1.02503e-05
1.01583e-05
1.0094e-05
1.00495e-05
1.00191e-05
9.99855e-06
9.98477e-06
9.97563e-06
9.96964e-06
9.96575e-06
9.96325e-06
9.96171e-06
1.00709e-05
1.00079e-05
9.95031e-06
9.89832e-06
9.85216e-06
9.81207e-06
9.77834e-06
9.75132e-06
9.73134e-06
9.71865e-06
9.71324e-06
9.71479e-06
9.7226e-06
9.73564e-06
9.75273e-06
9.77267e-06
9.79453e-06
9.81792e-06
9.84327e-06
9.8725e-06
9.90994e-06
9.96441e-06
1.00535e-05
1.02135e-05
1.05232e-05
1.11706e-05
1.26433e-05
1.62553e-05
2.51374e-05
4.1471e-05
3.20763e-05
1.10922e-05
1e-06
1e-06
1e-06
1e-06
1e-06
1e-06
1e-06
1e-06
1e-06
1e-06
1e-06
3.59304e-05
3.13942e-05
3.59179e-05
3.78596e-05
3.65859e-05
3.35818e-05
2.98457e-05
2.60887e-05
2.26925e-05
1.9815e-05
1.7484e-05
1.56382e-05
1.42045e-05
1.31046e-05
1.22689e-05
1.16398e-05
1.11705e-05
1.08239e-05
1.05705e-05
1.03872e-05
1.0256e-05
1.0163e-05
1.00979e-05
1.00527e-05
1.00217e-05
1.00006e-05
9.98646e-06
9.97705e-06
9.97084e-06
9.9668e-06
9.9642e-06
9.9626e-06
1.0071e-05
1.00081e-05
9.9507e-06
9.89899e-06
9.85319e-06
9.81354e-06
9.78028e-06
9.75373e-06
9.73418e-06
9.72181e-06
9.71659e-06
9.71817e-06
9.72588e-06
9.73874e-06
9.75562e-06
9.77539e-06
9.79716e-06
9.82058e-06
9.84608e-06
9.8755e-06
9.91308e-06
9.9674e-06
1.00556e-05
1.02126e-05
1.05145e-05
1.11413e-05
1.25587e-05
1.60313e-05
2.47147e-05
4.25627e-05
4.78399e-05
3.04915e-05
1e-06
1e-06
1e-06
1e-06
1e-06
1e-06
1e-06
1e-06
1e-06
1e-06
1e-06
4.62982e-05
3.65995e-05
3.94318e-05
3.99282e-05
3.77083e-05
3.41179e-05
3.00572e-05
2.61311e-05
2.26523e-05
1.97476e-05
1.7408e-05
1.55681e-05
1.41455e-05
1.30577e-05
1.22331e-05
1.16134e-05
1.11515e-05
1.08106e-05
1.05614e-05
1.0381e-05
1.02519e-05
1.01603e-05
1.0096e-05
1.00514e-05
1.00208e-05
9.99991e-06
9.98587e-06
9.97652e-06
9.97036e-06
9.96633e-06
9.96374e-06
9.96214e-06
1.00712e-05
1.00088e-05
9.952e-06
9.90122e-06
9.85662e-06
9.81835e-06
9.78656e-06
9.76138e-06
9.74292e-06
9.7312e-06
9.72609e-06
9.72726e-06
9.73412e-06
9.74589e-06
9.76165e-06
9.7805e-06
9.80174e-06
9.82501e-06
9.85073e-06
9.88063e-06
9.91856e-06
9.97243e-06
1.00579e-05
1.02071e-05
1.04887e-05
1.1063e-05
1.234e-05
1.54269e-05
2.31319e-05
4.00164e-05
5.73008e-05
5.19495e-05
1e-06
1e-06
1e-06
1e-06
1e-06
1e-06
1e-06
1e-06
1e-06
1e-06
1e-06
8.8282e-05
4.97932e-05
4.77381e-05
4.45136e-05
4.00493e-05
3.51768e-05
3.04535e-05
2.62066e-05
2.2582e-05
1.96193e-05
1.7267e-05
1.54374e-05
1.40335e-05
1.29659e-05
1.21601e-05
1.15563e-05
1.11076e-05
1.07771e-05
1.05361e-05
1.0362e-05
1.02375e-05
1.01494e-05
1.00877e-05
1.00449e-05
1.00155e-05
9.99559e-06
9.98216e-06
9.97323e-06
9.96734e-06
9.9635e-06
9.96103e-06
9.9595e-06
1.00716e-05
1.00101e-05
9.95468e-06
9.9058e-06
9.86355e-06
9.82783e-06
9.79844e-06
9.77512e-06
9.75757e-06
9.74558e-06
9.73899e-06
9.73761e-06
9.74119e-06
9.74941e-06
9.76186e-06
9.77809e-06
9.79765e-06
9.82022e-06
9.84606e-06
9.87657e-06
9.91499e-06
9.9681e-06
1.00496e-05
1.01871e-05
1.04392e-05
1.09398e-05
1.2024e-05
1.45851e-05
2.09101e-05
3.52341e-05
5.58184e-05
9.72706e-05
1.06095e-05
1e-06
1e-06
1e-06
1e-06
1e-06
1e-06
1e-06
1e-06
1e-06
5.5199e-05
8.84869e-05
6.53987e-05
5.63008e-05
4.84146e-05
4.13474e-05
3.5174e-05
2.99004e-05
2.54897e-05
2.18873e-05
1.90156e-05
1.67725e-05
1.50467e-05
1.37323e-05
1.27373e-05
1.19881e-05
1.14273e-05
1.10108e-05
1.07044e-05
1.04811e-05
1.03201e-05
1.02054e-05
1.01243e-05
1.00676e-05
1.00285e-05
1.00017e-05
9.98351e-06
9.97133e-06
9.96326e-06
9.95795e-06
9.95451e-06
9.95229e-06
9.95091e-06
1.00725e-05
1.00126e-05
9.95978e-06
9.91431e-06
9.87583e-06
9.8435e-06
9.81627e-06
9.79314e-06
9.7734e-06
9.75688e-06
9.74378e-06
9.73455e-06
9.72971e-06
9.72976e-06
9.73507e-06
9.74581e-06
9.76189e-06
9.78294e-06
9.80874e-06
9.84012e-06
9.8794e-06
9.93185e-06
1.00086e-05
1.01324e-05
1.03504e-05
1.07677e-05
1.16397e-05
1.3631e-05
1.84549e-05
2.95684e-05
4.74729e-05
7.94163e-05
7.27431e-05
1e-06
1e-06
1e-06
1e-06
1e-06
1e-06
1e-06
1e-06
3.09906e-05
0.000142366
8.6479e-05
7.24491e-05
5.90114e-05
4.80292e-05
3.94702e-05
3.28173e-05
2.76005e-05
2.34814e-05
2.02329e-05
1.76958e-05
1.57408e-05
1.42526e-05
1.31291e-05
1.22844e-05
1.16505e-05
1.1176e-05
1.08236e-05
1.05639e-05
1.03744e-05
1.02377e-05
1.01403e-05
1.00717e-05
1.00239e-05
9.99095e-06
9.96848e-06
9.95335e-06
9.94326e-06
9.93661e-06
9.93227e-06
9.92948e-06
9.9277e-06
9.92655e-06
1.00741e-05
1.00174e-05
9.96921e-06
9.92891e-06
9.89442e-06
9.86311e-06
9.83278e-06
9.80229e-06
9.77175e-06
9.7422e-06
9.7152e-06
9.69223e-06
9.67451e-06
9.66301e-06
9.65846e-06
9.66143e-06
9.67211e-06
9.69017e-06
9.71488e-06
9.74635e-06
9.7857e-06
9.83643e-06
9.90702e-06
1.00156e-05
1.0198e-05
1.05324e-05
1.12006e-05
1.26604e-05
1.60821e-05
2.40287e-05
3.89636e-05
5.97565e-05
8.14519e-05
8.25367e-05
1.93611e-05
1e-06
1e-06
1e-06
1e-06
1e-06
4.9155e-05
0.000142677
0.000100836
8.55059e-05
6.75947e-05
5.28224e-05
4.18728e-05
3.39912e-05
2.82367e-05
2.39104e-05
2.0568e-05
1.79525e-05
1.59155e-05
1.43529e-05
1.31734e-05
1.22947e-05
1.16439e-05
1.11619e-05
1.08047e-05
1.05402e-05
1.03456e-05
1.02038e-05
1.01017e-05
1.0029e-05
9.9779e-06
9.94244e-06
9.91816e-06
9.90173e-06
9.89076e-06
9.88353e-06
9.87882e-06
9.87581e-06
9.8739e-06
9.87269e-06
9.87182e-06
1.00773e-05
1.00266e-05
9.98534e-06
9.94901e-06
9.91134e-06
9.86842e-06
9.82054e-06
9.7713e-06
9.72522e-06
9.68567e-06
9.65418e-06
9.63039e-06
9.61322e-06
9.60108e-06
9.59395e-06
9.5916e-06
9.5947e-06
9.60411e-06
9.61997e-06
9.64216e-06
9.67115e-06
9.70824e-06
9.75934e-06
9.843e-06
9.98156e-06
1.0231e-05
1.0714e-05
1.17235e-05
1.39876e-05
1.91691e-05
2.97637e-05
4.57159e-05
6.21703e-05
8.02672e-05
0.000127388
7.12098e-05
4.73622e-05
4.79738e-05
7.25451e-05
0.000119493
0.000203194
0.000101348
8.40113e-05
6.57661e-05
5.07208e-05
3.97131e-05
3.22325e-05
2.70308e-05
2.32175e-05
2.02582e-05
1.78675e-05
1.592e-05
1.43621e-05
1.31507e-05
1.2236e-05
1.15617e-05
1.10715e-05
1.07165e-05
1.0459e-05
1.0272e-05
1.01364e-05
1.00388e-05
9.96921e-06
9.92015e-06
9.88603e-06
9.86263e-06
9.8468e-06
9.83625e-06
9.82931e-06
9.82483e-06
9.82198e-06
9.8202e-06
9.81911e-06
9.81843e-06
9.81778e-06
1.00838e-05
1.00431e-05
1.0006e-05
9.95792e-06
9.89201e-06
9.81792e-06
9.7543e-06
9.71663e-06
9.71016e-06
9.7304e-06
9.76755e-06
9.81019e-06
9.84896e-06
9.87731e-06
9.89138e-06
9.89159e-06
9.88113e-06
9.86659e-06
9.85121e-06
9.83583e-06
9.82204e-06
9.81192e-06
9.8077e-06
9.82297e-06
9.87708e-06
1.00083e-05
1.02952e-05
1.09134e-05
1.22776e-05
1.53266e-05
2.1725e-05
3.25873e-05
4.50531e-05
5.69882e-05
6.75971e-05
6.84442e-05
7.153e-05
7.69268e-05
7.89135e-05
7.49473e-05
6.70817e-05
5.67508e-05
4.63159e-05
3.78004e-05
3.14696e-05
2.72195e-05
2.42989e-05
2.20307e-05
2.00578e-05
1.82349e-05
1.65548e-05
1.50683e-05
1.38186e-05
1.28188e-05
1.20522e-05
1.14826e-05
1.10674e-05
1.07675e-05
1.05517e-05
1.03969e-05
1.02864e-05
1.02085e-05
1.01541e-05
1.01164e-05
1.00905e-05
1.00729e-05
1.00612e-05
1.00535e-05
1.00484e-05
1.00452e-05
1.00431e-05
1.00419e-05
1.00411e-05
1.00406e-05
1.00402e-05
1.00974e-05
1.00666e-05
1.00075e-05
9.90561e-06
9.80227e-06
9.762e-06
9.82131e-06
9.97801e-06
1.02033e-05
1.04598e-05
1.07114e-05
1.09335e-05
1.11101e-05
1.12324e-05
1.12967e-05
1.13088e-05
1.12786e-05
1.1224e-05
1.11474e-05
1.10533e-05
1.09458e-05
1.08294e-05
1.07081e-05
1.05893e-05
1.04891e-05
1.04312e-05
1.04628e-05
1.06809e-05
1.12976e-05
1.27756e-05
1.59742e-05
2.18136e-05
2.97417e-05
3.781e-05
4.35683e-05
4.57772e-05
4.55378e-05
4.2714e-05
3.82846e-05
3.32169e-05
2.87016e-05
2.55424e-05
2.38705e-05
2.32098e-05
2.29914e-05
2.27989e-05
2.23497e-05
2.15162e-05
2.03231e-05
1.89079e-05
1.74487e-05
1.60935e-05
1.49316e-05
1.3993e-05
1.32656e-05
1.27166e-05
1.23085e-05
1.20084e-05
1.179e-05
1.16331e-05
1.15228e-05
1.14452e-05
1.13908e-05
1.13532e-05
1.13273e-05
1.13097e-05
1.12979e-05
1.129e-05
1.12847e-05
1.12813e-05
1.12791e-05
1.12777e-05
1.12769e-05
1.12765e-05
1.12767e-05
1.01259e-05
1.00823e-05
9.94173e-06
9.82425e-06
9.90846e-06
1.02579e-05
1.08249e-05
1.15206e-05
1.22612e-05
1.29733e-05
1.35933e-05
1.40907e-05
1.44524e-05
1.46807e-05
1.47886e-05
1.47964e-05
1.47313e-05
1.46131e-05
1.44467e-05
1.4244e-05
1.40134e-05
1.37606e-05
1.34889e-05
1.32025e-05
1.29087e-05
1.26211e-05
1.23644e-05
1.21854e-05
1.21761e-05
1.25189e-05
1.35436e-05
1.56575e-05
1.88894e-05
2.25007e-05
2.51609e-05
2.61059e-05
2.55408e-05
2.35672e-05
2.11707e-05
1.99777e-05
2.03008e-05
2.17212e-05
2.3638e-05
2.54705e-05
2.67638e-05
2.7261e-05
2.69095e-05
2.583e-05
2.42678e-05
2.25191e-05
2.08326e-05
1.93601e-05
1.81568e-05
1.72128e-05
1.64891e-05
1.59415e-05
1.55319e-05
1.52299e-05
1.50128e-05
1.48579e-05
1.47468e-05
1.46678e-05
1.46122e-05
1.45736e-05
1.4547e-05
1.45288e-05
1.45165e-05
1.45082e-05
1.45026e-05
1.4499e-05
1.44967e-05
1.44953e-05
1.44946e-05
1.44947e-05
1.44965e-05
1.01858e-05
1.00749e-05
9.98669e-06
1.03688e-05
1.13341e-05
1.27236e-05
1.43324e-05
1.59492e-05
1.74329e-05
1.86886e-05
1.9667e-05
2.03631e-05
2.08019e-05
2.10255e-05
2.10823e-05
2.10197e-05
2.08826e-05
2.06708e-05
2.04103e-05
2.01192e-05
1.98069e-05
1.94767e-05
1.91278e-05
1.87586e-05
1.83685e-05
1.79608e-05
1.75456e-05
1.71433e-05
1.67914e-05
1.65556e-05
1.65406e-05
1.68704e-05
1.75911e-05
1.85619e-05
1.95039e-05
2.0276e-05
2.10351e-05
2.22427e-05
2.44391e-05
2.76652e-05
3.1442e-05
3.50935e-05
3.79782e-05
3.96239e-05
3.98229e-05
3.8669e-05
3.65072e-05
3.38138e-05
3.10608e-05
2.85855e-05
2.65443e-05
2.49476e-05
2.37294e-05
2.2808e-05
2.21143e-05
2.15963e-05
2.12158e-05
2.09424e-05
2.07427e-05
2.05984e-05
2.0495e-05
2.04221e-05
2.03716e-05
2.03368e-05
2.03129e-05
2.02967e-05
2.02859e-05
2.02787e-05
2.0274e-05
2.02711e-05
2.02694e-05
2.02686e-05
2.02686e-05
2.02701e-05
2.02748e-05
1.03335e-05
1.04172e-05
1.13456e-05
1.34625e-05
1.63773e-05
1.94767e-05
2.2419e-05
2.49387e-05
2.68898e-05
2.82514e-05
2.90906e-05
2.95177e-05
2.96494e-05
2.95901e-05
2.94226e-05
2.92072e-05
2.8963e-05
2.87088e-05
2.84692e-05
2.82572e-05
2.80778e-05
2.7931e-05
2.78148e-05
2.77275e-05
2.76692e-05
2.76432e-05
2.76584e-05
2.77316e-05
2.78925e-05
2.81908e-05
2.87046e-05
2.95419e-05
3.08332e-05
3.27184e-05
3.53517e-05
3.89349e-05
4.36786e-05
4.99656e-05
5.65797e-05
6.26013e-05
6.69469e-05
6.88178e-05
6.79265e-05
6.45425e-05
5.94056e-05
5.34842e-05
4.77108e-05
4.2715e-05
3.87566e-05
3.57838e-05
3.36016e-05
3.20024e-05
3.08234e-05
2.9956e-05
2.9321e-05
2.88599e-05
2.85276e-05
2.829e-05
2.81223e-05
2.80061e-05
2.79267e-05
2.78731e-05
2.78376e-05
2.78146e-05
2.78001e-05
2.77912e-05
2.77861e-05
2.77834e-05
2.77822e-05
2.7782e-05
2.77825e-05
2.77836e-05
2.77857e-05
2.77901e-05
2.77999e-05
1.10367e-05
1.31036e-05
1.73446e-05
2.23995e-05
2.71465e-05
3.11709e-05
3.42022e-05
3.61867e-05
3.7267e-05
3.76733e-05
3.76367e-05
3.73482e-05
3.69479e-05
3.6531e-05
3.61568e-05
3.58574e-05
3.56433e-05
3.5531e-05
3.55341e-05
3.56646e-05
3.59355e-05
3.63641e-05
3.69752e-05
3.78035e-05
3.88971e-05
4.03193e-05
4.21517e-05
4.44986e-05
4.74926e-05
5.13038e-05
5.61489e-05
6.22964e-05
7.00569e-05
7.97472e-05
9.16337e-05
0.000105695
0.000120666
0.000132519
0.000139456
0.000139533
0.000132427
0.000119638
0.000103833
8.78834e-05
7.38493e-05
6.26549e-05
5.4159e-05
4.8117e-05
4.38464e-05
4.08301e-05
3.86897e-05
3.71562e-05
3.60664e-05
3.53034e-05
3.4768e-05
3.43913e-05
3.41389e-05
3.3975e-05
3.38719e-05
3.38107e-05
3.37771e-05
3.37613e-05
3.37567e-05
3.37586e-05
3.3764e-05
3.37711e-05
3.37786e-05
3.37858e-05
3.37924e-05
3.37983e-05
3.38036e-05
3.38087e-05
3.38146e-05
3.38236e-05
3.38397e-05
)
;

boundaryField
{
    ibCylinder
    {
        type            immersedBoundaryNutWallFunction;
        patchType       immersedBoundary;
        blending        stepwise;
        value           nonuniform List<scalar> 0();
    }
    in
    {
        type            zeroGradient;
    }
    out
    {
        type            zeroGradient;
    }
    top
    {
        type            zeroGradient;
    }
    bottom
    {
        type            zeroGradient;
    }
    frontAndBack
    {
        type            empty;
    }
}


// ************************************************************************* //
