/*--------------------------------*- C++ -*----------------------------------*\
| =========                 |                                                 |
| \\      /  F ield         | OpenFOAM: The Open Source CFD Toolbox           |
|  \\    /   O peration     | Version:  2206                                  |
|   \\  /    A nd           | Website:  www.openfoam.com                      |
|    \\/     M anipulation  |                                                 |
\*---------------------------------------------------------------------------*/
FoamFile
{
    version     2.0;
    format      ascii;
    arch        "LSB;label=32;scalar=64";
    class       volScalarField;
    location    "0.7";
    object      p;
}
// * * * * * * * * * * * * * * * * * * * * * * * * * * * * * * * * * * * * * //

dimensions      [0 2 -2 0 0 0 0];

internalField   nonuniform List<scalar> 
1875
(
7.61724
7.22755
6.97648
6.87864
6.81873
6.77146
6.73695
6.71236
6.69334
6.67714
6.66238
6.64822
6.63412
6.61965
6.60446
6.58816
6.57004
6.54938
6.5253
6.49677
6.46242
6.4205
6.36878
6.30447
6.22406
6.12315
5.99629
5.83697
5.63755
5.38971
5.08513
4.7171
4.28302
3.78835
3.24892
2.6893
2.13346
1.61672
1.17085
0.807375
0.527767
0.322917
0.179025
0.0842922
0.0273289
-0.00321698
-0.0164624
-0.0182721
-0.0120599
-0.00124204
0.0116633
0.0254113
0.0388569
0.0512202
0.0619527
0.0705977
0.0770727
0.0814723
0.0839483
0.0847099
0.0839608
0.0819152
0.0787842
0.0747504
0.0699772
0.0646088
0.0587653
0.052547
0.0460349
0.039295
0.0323793
0.0253299
0.0181798
0.0109561
0.00367732
7.24199
7.08637
6.95764
6.88027
6.82702
6.7837
6.7492
6.72325
6.70244
6.6845
6.66827
6.65293
6.63793
6.62281
6.60713
6.59046
6.57217
6.55147
6.5275
6.49927
6.4654
6.42417
6.37338
6.31026
6.2313
6.13205
6.00697
5.84928
5.65094
5.40289
5.09576
4.72152
4.276
3.76329
3.2001
2.61421
2.04138
1.51619
1.07303
0.726246
0.472101
0.294144
0.173896
0.0956828
0.0458284
0.0158286
0.000813378
-0.00361473
-0.0002337
0.00797621
0.0190041
0.0312216
0.0434553
0.0548527
0.0646865
0.072595
0.0785738
0.0826491
0.0848703
0.0854159
0.0845068
0.0823307
0.0790997
0.0749884
0.0701536
0.0647383
0.0588594
0.0526144
0.0460829
0.0393285
0.0324025
0.0253455
0.0181901
0.0109616
0.00368135
7.06513
7.0147
6.94412
6.88543
6.83777
6.7967
6.76301
6.73565
6.71295
6.6936
6.67629
6.66007
6.64445
6.62898
6.61319
6.59666
6.57886
6.55893
6.53607
6.5094
6.47763
6.43911
6.39172
6.33272
6.25859
6.16475
6.04533
5.89288
5.6982
5.45041
5.13744
4.74785
4.27379
3.71628
3.09415
2.44624
1.81905
1.26521
0.813767
0.485095
0.275139
0.147018
0.0724438
0.033795
0.0169851
0.00972348
0.0067694
0.00853743
0.0138609
0.0218021
0.0314428
0.0419152
0.0524094
0.0621743
0.0706322
0.0774465
0.082504
0.0858184
0.0873784
0.0873821
0.0860555
0.0835208
0.0800038
0.0756833
0.0706828
0.0651386
0.0591575
0.0528343
0.0462435
0.0394442
0.0324841
0.0254012
0.0182259
0.0109803
0.00368753
6.98591
6.96498
6.91999
6.87567
6.83752
6.80384
6.77383
6.74666
6.72416
6.70478
6.68658
6.66965
6.65387
6.6387
6.6235
6.60787
6.59142
6.57339
6.55303
6.52961
6.50199
6.46868
6.42776
6.37658
6.31158
6.22792
6.11925
5.97708
5.79022
5.54453
5.22322
4.80867
4.28558
3.64743
2.91771
2.15096
1.42373
0.82717
0.369556
0.0640846
-0.0795762
-0.131364
-0.131033
-0.102529
-0.0629126
-0.0276547
-0.00127989
0.018443
0.0326947
0.0436134
0.0528703
0.0613664
0.0692529
0.0763207
0.0822731
0.0868879
0.090067
0.0917785
0.09206
0.0910402
0.0888917
0.0857019
0.0816527
0.0769288
0.0716201
0.065846
0.0596845
0.0532221
0.0465254
0.0396458
0.0326248
0.0254953
0.0182841
0.0110095
0.00369336
6.93363
6.92281
6.89528
6.8631
6.83302
6.80529
6.77966
6.75576
6.73494
6.71627
6.69816
6.68165
6.66675
6.65239
6.63791
6.62344
6.60892
6.59367
6.57701
6.55833
6.53665
6.51074
6.47891
6.4388
6.38687
6.31801
6.22538
6.09931
5.92604
5.68706
5.35827
4.91166
4.31321
3.53604
2.61839
1.65422
0.81318
0.166526
-0.289109
-0.53258
-0.590257
-0.557296
-0.457578
-0.332794
-0.20889
-0.112516
-0.0394702
0.0153298
0.0513039
0.0721523
0.0837843
0.0907294
0.0952437
0.0983237
0.100348
0.101441
0.101607
0.100817
0.0990811
0.0964654
0.0930109
0.0888294
0.0840252
0.0786945
0.0729362
0.0668193
0.0604042
0.0537485
0.0469051
0.0399144
0.0328094
0.0256164
0.0183567
0.0110454
0.0036987
6.89762
6.89143
6.87398
6.85104
6.82756
6.80471
6.78286
6.76206
6.7427
6.72518
6.70894
6.69365
6.67974
6.66664
6.65368
6.64127
6.62946
6.61775
6.60567
6.59284
6.57861
6.56219
6.54185
6.51549
6.48026
6.43127
6.36138
6.25975
6.11002
5.88836
5.55996
5.07789
4.37097
3.41942
2.32487
1.15031
0.097257
-0.617167
-1.05339
-1.22209
-1.14015
-1.00742
-0.820751
-0.605237
-0.395273
-0.226405
-0.099149
-0.00225502
0.0628564
0.0999625
0.118593
0.126294
0.127902
0.126487
0.123661
0.120243
0.116506
0.112463
0.108089
0.10338
0.0982801
0.0928101
0.0870263
0.08094
0.074599
0.0680339
0.0612941
0.0544007
0.0473774
0.0402494
0.0330401
0.0257682
0.0184478
0.0110905
0.00370467
6.87243
6.86852
6.85671
6.83994
6.82154
6.80282
6.78425
6.76619
6.74904
6.73312
6.71826
6.70419
6.69116
6.67952
6.66903
6.65947
6.65082
6.64291
6.63585
6.62957
6.62378
6.61789
6.61076
6.60106
6.5865
6.56283
6.52309
6.45605
6.34357
6.1566
5.84922
5.34725
4.58106
3.60651
2.57666
1.37921
-0.167233
-1.18175
-1.68173
-1.86751
-1.63581
-1.39777
-1.12058
-0.837804
-0.57149
-0.338861
-0.158387
-0.0255971
0.0662667
0.12234
0.151491
0.162298
0.162158
0.156721
0.149219
0.141175
0.133238
0.125588
0.118275
0.111256
0.104255
0.0973037
0.0904332
0.0834928
0.0764982
0.0694441
0.062328
0.0551516
0.0479196
0.0406367
0.0333101
0.0259483
0.0185582
0.0111469
0.00371474
6.85437
6.85163
6.84312
6.83045
6.8158
6.80029
6.78448
6.76879
6.75363
6.73927
6.72582
6.71334
6.70201
6.69202
6.68341
6.67624
6.67067
6.66691
6.6652
6.6657
6.66855
6.67368
6.68076
6.68931
6.69802
6.70375
6.70072
6.67863
6.61896
6.48987
6.24377
5.7886
5.12426
4.39126
2.48821
0
0
0
0
0
-1.69028
-1.56698
-1.26814
-0.969751
-0.685525
-0.423212
-0.203659
-0.0394398
0.074648
0.146083
0.182456
0.195184
0.193914
0.185491
0.174063
0.161822
0.149911
0.13878
0.128596
0.119248
0.110356
0.102005
0.0940296
0.0861579
0.0784815
0.0709202
0.063421
0.0559529
0.048501
0.0410534
0.0336025
0.026146
0.0186825
0.0112147
0.00373191
6.84134
6.83925
6.83276
6.82281
6.81087
6.79782
6.78416
6.77036
6.75685
6.74393
6.73182
6.72072
6.71087
6.70246
6.69571
6.69086
6.68833
6.68851
6.6918
6.69873
6.70987
6.72583
6.74713
6.77422
6.80703
6.84429
6.88252
6.91397
6.92211
6.87721
6.71159
6.3289
5.80662
0
0
0
0
0
0
0
0
-1.53627
-1.29877
-1.00214
-0.718687
-0.456479
-0.227201
-0.0451765
0.0848212
0.166957
0.20968
0.224572
0.222573
0.211379
0.196196
0.18019
0.164898
0.150875
0.13814
0.12657
0.116088
0.106486
0.0974169
0.0887308
0.0804271
0.0723724
0.0644844
0.0567352
0.0490727
0.0414657
0.0338936
0.0263445
0.0188089
0.0112849
0.0037521
6.83212
6.83044
6.8252
6.81703
6.80697
6.7957
6.78367
6.77132
6.7591
6.74736
6.73638
6.72642
6.7178
6.71079
6.70573
6.70294
6.70295
6.70645
6.71408
6.72665
6.74517
6.77082
6.80498
6.84914
6.90473
6.97273
7.05276
7.14144
7.2287
7.29291
7.25184
7.00116
6.70036
0
0
0
0
0
0
0
0
0
-1.30487
-1.02284
-0.730723
-0.466601
-0.233821
-0.0443531
0.0938491
0.182545
0.229883
0.246998
0.244763
0.231762
0.214078
0.19535
0.177397
0.160957
0.146145
0.132875
0.121006
0.110232
0.100295
0.0909766
0.0821355
0.0736539
0.0654399
0.057433
0.049582
0.0418354
0.0341563
0.0265247
0.0189245
0.0113489
0.00377175
6.82597
6.82453
6.82006
6.81301
6.80417
6.7941
6.7832
6.77188
6.7606
6.74973
6.73959
6.73049
6.72279
6.71686
6.7131
6.71194
6.7139
6.71991
6.73086
6.74783
6.77215
6.80549
6.84993
6.90795
6.9824
7.07637
7.19263
7.33244
7.49253
7.65761
7.77921
7.87084
0
0
0
0
0
0
0
0
0
0
0
-1.00504
-0.732613
-0.466556
-0.232794
-0.0404342
0.101864
0.194279
0.244187
0.262612
0.260188
0.24602
0.226782
0.206288
0.186525
0.168401
0.152143
0.137664
0.124768
0.11313
0.102476
0.0926441
0.0834308
0.0746553
0.0661962
0.0579856
0.0499836
0.0421263
0.0343642
0.0266681
0.0190163
0.011399
0.00378758
6.82245
6.82114
6.81708
6.81064
6.8025
6.79312
6.78287
6.77218
6.76146
6.75112
6.7415
6.73293
6.7258
6.72052
6.71757
6.71748
6.72076
6.72828
6.74131
6.76106
6.78907
6.82735
6.87843
6.94548
7.03238
7.14369
7.2845
7.45954
7.67042
7.90849
8.16187
8.53233
0
0
0
0
0
0
0
0
0
0
0
-0.974396
-0.735078
-0.46345
-0.228985
-0.0350717
0.10875
0.202535
0.253424
0.272257
0.269868
0.254835
0.234471
0.21292
0.192094
0.172974
0.155841
0.140621
0.127084
0.114928
0.103886
0.093728
0.0842397
0.0752597
0.0666677
0.0583479
0.0502402
0.0423096
0.0344962
0.0267582
0.0190736
0.0114299
0.00379687
6.8213
6.82004
6.8161
6.80985
6.80194
6.79279
6.78276
6.77227
6.76174
6.75158
6.74214
6.73374
6.7268
6.72174
6.71905
6.71933
6.72314
6.73116
6.74486
6.76555
6.79483
6.83481
6.88818
6.95837
7.0496
7.16698
7.3164
7.50382
7.73247
7.99668
8.29083
8.66641
0
0
0
0
0
0
0
0
0
0
0
-0.952839
-0.732157
-0.46323
-0.227143
-0.0325208
0.111706
0.205803
0.256893
0.27563
0.273441
0.258051
0.237083
0.215145
0.193969
0.174516
0.157091
0.141622
0.127872
0.115547
0.10437
0.0940966
0.0845194
0.075469
0.0668305
0.0584698
0.0503272
0.0423751
0.0345415
0.0267878
0.0190924
0.0114419
0.00380172
6.82245
6.82115
6.81708
6.81065
6.80251
6.79312
6.78288
6.77219
6.76147
6.75113
6.74151
6.73294
6.72581
6.72053
6.71758
6.71749
6.72077
6.72829
6.74132
6.76107
6.78908
6.82735
6.87843
6.94549
7.03239
7.1437
7.28451
7.45956
7.67043
7.90851
8.16189
8.53235
0
0
0
0
0
0
0
0
0
0
0
-0.974402
-0.735071
-0.463439
-0.228972
-0.0350578
0.108765
0.202545
0.253437
0.272261
0.269872
0.254842
0.234471
0.212923
0.192098
0.172976
0.155843
0.140623
0.127087
0.114931
0.103889
0.0937304
0.084242
0.0752617
0.0666694
0.0583494
0.0502417
0.0423109
0.0344975
0.0267593
0.0190744
0.0114304
0.00379706
6.82598
6.82455
6.82007
6.81302
6.80419
6.79411
6.78321
6.7719
6.76061
6.74975
6.7396
6.73051
6.72281
6.71687
6.71311
6.71196
6.71392
6.71992
6.73088
6.74785
6.77216
6.80551
6.84995
6.90797
6.98242
7.07639
7.19265
7.33247
7.49256
7.65765
7.77925
7.8709
0
0
0
0
0
0
0
0
0
0
0
-1.00501
-0.73259
-0.466529
-0.232769
-0.0404102
0.101886
0.194298
0.244201
0.262622
0.260198
0.246025
0.226787
0.206292
0.186531
0.168406
0.152147
0.137669
0.124773
0.113135
0.102481
0.0926489
0.0834354
0.0746593
0.0661996
0.0579887
0.0499866
0.0421291
0.0343667
0.0266702
0.0190179
0.0114
0.00378791
6.83214
6.83046
6.82522
6.81705
6.807
6.79572
6.78369
6.77134
6.75912
6.74739
6.7364
6.72645
6.71782
6.71082
6.70575
6.70296
6.70297
6.70647
6.7141
6.72667
6.74519
6.77085
6.80501
6.84916
6.90476
6.97276
7.0528
7.14148
7.22874
7.29296
7.2519
7.00122
6.70041
0
0
0
0
0
0
0
0
0
-1.30478
-1.02278
-0.73068
-0.466558
-0.233783
-0.0443227
0.0938753
0.182566
0.229899
0.24701
0.244772
0.231772
0.214085
0.195357
0.177404
0.160964
0.146152
0.132882
0.121013
0.11024
0.100302
0.0909839
0.0821422
0.07366
0.0654453
0.0574378
0.0495865
0.0418396
0.0341601
0.0265279
0.0189269
0.0113504
0.00377223
6.84137
6.83928
6.83279
6.82284
6.8109
6.79785
6.78419
6.77039
6.75688
6.74395
6.73185
6.72075
6.7109
6.70249
6.69574
6.69088
6.68836
6.68853
6.69183
6.69875
6.7099
6.72586
6.74716
6.77425
6.80706
6.84433
6.88256
6.91401
6.92216
6.87727
6.71165
6.32896
5.80667
0
0
0
0
0
0
0
0
-1.53612
-1.29867
-1.00207
-0.718622
-0.456414
-0.227149
-0.045135
0.0848534
0.166981
0.209697
0.224587
0.222585
0.211392
0.196205
0.180201
0.164908
0.150885
0.13815
0.12658
0.116098
0.106496
0.0974272
0.0887407
0.0804363
0.0723808
0.0644918
0.0567418
0.0490787
0.0414713
0.0338985
0.0263486
0.018812
0.0112868
0.00375273
6.85441
6.85166
6.84315
6.83048
6.81583
6.80033
6.78451
6.76883
6.75366
6.73931
6.72585
6.71338
6.70204
6.69206
6.68344
6.67627
6.67071
6.66694
6.66523
6.66573
6.66859
6.67372
6.68079
6.68935
6.69806
6.70379
6.70077
6.67868
6.61901
6.48993
6.24383
5.78867
5.12432
4.39123
2.48721
0
0
0
0
0
-1.69024
-1.56693
-1.26809
-0.969689
-0.685435
-0.423132
-0.203597
-0.0393884
0.0746883
0.146114
0.182479
0.195204
0.193931
0.185507
0.174078
0.161836
0.149925
0.138793
0.12861
0.119261
0.110369
0.102019
0.0940426
0.0861705
0.0784932
0.0709308
0.0634304
0.0559613
0.0485087
0.0410603
0.0336086
0.0261511
0.0186862
0.011217
0.00373267
6.87247
6.86856
6.85676
6.83998
6.82158
6.80286
6.78429
6.76623
6.74908
6.73316
6.7183
6.70423
6.6912
6.67956
6.66907
6.65951
6.65086
6.64295
6.6359
6.62961
6.62383
6.61793
6.61081
6.6011
6.58655
6.56288
6.52314
6.45611
6.34363
6.15666
5.84928
5.34733
4.58115
3.60659
2.57674
1.37918
-0.167227
-1.1817
-1.68174
-1.86757
-1.63585
-1.39778
-1.12054
-0.837728
-0.571401
-0.33879
-0.158334
-0.0255473
0.0663117
0.122373
0.151518
0.162321
0.16218
0.156741
0.149238
0.141194
0.133256
0.125605
0.118292
0.111273
0.104272
0.09732
0.0904491
0.083508
0.0765124
0.069457
0.0623395
0.0551618
0.0479288
0.040645
0.0333173
0.0259542
0.0185626
0.0111495
0.00371563
6.89767
6.89148
6.87402
6.85109
6.8276
6.80476
6.78291
6.7621
6.74275
6.72523
6.70898
6.6937
6.67979
6.66669
6.65373
6.64132
6.62951
6.61779
6.60572
6.59289
6.57866
6.56224
6.5419
6.51554
6.48031
6.43133
6.36144
6.25981
6.11008
5.88842
5.56002
5.07796
4.37102
3.41949
2.32493
1.15032
0.0972566
-0.617201
-1.05347
-1.22218
-1.14023
-1.00744
-0.820714
-0.605172
-0.39521
-0.226346
-0.0990997
-0.00221278
0.0628954
0.0999937
0.118621
0.126319
0.127926
0.126511
0.123685
0.120265
0.116529
0.112485
0.10811
0.103401
0.0983004
0.0928296
0.0870449
0.0809577
0.0746155
0.0680489
0.0613076
0.0544128
0.0473881
0.0402589
0.0330483
0.0257749
0.0184527
0.0110935
0.00370567
6.93368
6.92286
6.89533
6.86315
6.83307
6.80534
6.77971
6.75581
6.73499
6.71632
6.69821
6.6817
6.6668
6.65244
6.63796
6.62349
6.60897
6.59372
6.57707
6.55838
6.5367
6.51079
6.47897
6.43886
6.38693
6.31807
6.22544
6.09938
5.92611
5.68712
5.35833
4.91173
4.31327
3.53611
2.61845
1.65422
0.81315
0.166462
-0.289185
-0.532625
-0.590282
-0.557303
-0.457527
-0.332719
-0.208829
-0.112452
-0.0394165
0.0153749
0.0513423
0.072188
0.083816
0.0907591
0.0952726
0.0983523
0.100377
0.101469
0.101634
0.100844
0.0991067
0.0964902
0.0930346
0.0888519
0.0840463
0.0787146
0.0729548
0.0668364
0.0604197
0.0537623
0.0469172
0.0399251
0.0328185
0.0256238
0.0183621
0.0110487
0.00369978
6.98597
6.96503
6.92005
6.87573
6.83758
6.8039
6.77389
6.74671
6.72422
6.70483
6.68664
6.6697
6.65393
6.63876
6.62356
6.60792
6.59148
6.57344
6.55309
6.52967
6.50205
6.46874
6.42782
6.37664
6.31164
6.22798
6.11932
5.97715
5.79029
5.54459
5.22328
4.80872
4.28564
3.64749
2.91777
2.15101
1.42376
0.8272
0.36957
0.0641152
-0.0795309
-0.131307
-0.130957
-0.102442
-0.0628304
-0.0275826
-0.00121721
0.0184956
0.0327409
0.0436558
0.0529092
0.0614028
0.069288
0.0763551
0.0823068
0.0869207
0.0900987
0.091809
0.0920893
0.0910682
0.0889184
0.0857269
0.0816763
0.0769508
0.0716404
0.0658646
0.0597013
0.0532372
0.0465388
0.0396574
0.0326346
0.0255032
0.0182899
0.011013
0.00369451
7.06518
7.01476
6.94418
6.88549
6.83783
6.79676
6.76307
6.73571
6.71301
6.69366
6.67635
6.66013
6.64451
6.62904
6.61325
6.59672
6.57892
6.55899
6.53613
6.50946
6.4777
6.43917
6.39178
6.33279
6.25866
6.16482
6.0454
5.89295
5.69827
5.45047
5.1375
4.74791
4.27385
3.71634
3.09421
2.44631
1.81912
1.26528
0.813833
0.485167
0.275223
0.147116
0.0725447
0.033892
0.0170723
0.00979816
0.00683347
0.00859453
0.0139136
0.0218499
0.0314874
0.0419572
0.0524499
0.0622136
0.0706704
0.0774835
0.0825397
0.0858521
0.0874103
0.0874125
0.0860843
0.0835477
0.0800292
0.0757067
0.0707043
0.0651583
0.0591754
0.0528503
0.0462577
0.0394565
0.0324944
0.0254094
0.0182319
0.010984
0.00368874
7.24205
7.08643
6.9577
6.88033
6.82708
6.78376
6.74926
6.72331
6.7025
6.68456
6.66833
6.65299
6.63799
6.62287
6.60719
6.59052
6.57223
6.55153
6.52757
6.49933
6.46547
6.42423
6.37344
6.31032
6.23136
6.13212
6.00704
5.84935
5.65101
5.40296
5.09583
4.72158
4.27606
3.76334
3.20015
2.61427
2.04145
1.51627
1.07311
0.726333
0.472198
0.294245
0.173995
0.0957732
0.045906
0.0158955
0.000871893
-0.00355857
-0.000178905
0.00802813
0.0190532
0.0312682
0.0434999
0.0548957
0.0647276
0.0726344
0.0786115
0.0826848
0.084904
0.0854478
0.0845368
0.0823588
0.079126
0.0750126
0.0701759
0.0647586
0.0588778
0.052631
0.0460975
0.0393411
0.032413
0.0253538
0.0181962
0.0109654
0.00368262
7.6173
7.22761
6.97654
6.8787
6.81879
6.77152
6.73701
6.71242
6.6934
6.6772
6.66244
6.64828
6.63418
6.61971
6.60452
6.58822
6.5701
6.54944
6.52536
6.49684
6.46249
6.42056
6.36884
6.30454
6.22413
6.12322
5.99636
5.83703
5.63762
5.38978
5.0852
4.71716
4.28307
3.7884
3.24897
2.68937
2.13353
1.6168
1.17094
0.807466
0.527864
0.323014
0.179119
0.084377
0.0274047
-0.00314632
-0.0163974
-0.0182092
-0.011999
-0.00118713
0.0117145
0.0254592
0.0389027
0.0512636
0.0619945
0.0706378
0.0771114
0.0815086
0.0839827
0.0847422
0.0839913
0.0819437
0.0788109
0.0747749
0.0699999
0.0646294
0.0587841
0.0525637
0.0460498
0.0393077
0.03239
0.0253383
0.0181859
0.0109598
0.00367861
)
;

boundaryField
{
    ibCylinder
    {
        type            zeroGradientIb;
        patchType       immersedBoundary;
        setDeadValue    true;
        deadValue       0;
        value           nonuniform List<scalar> 0();
    }
    in
    {
        type            zeroGradient;
    }
    out
    {
        type            fixedValue;
        value           uniform 0;
    }
    top
    {
        type            zeroGradient;
    }
    bottom
    {
        type            zeroGradient;
    }
    frontAndBack
    {
        type            empty;
    }
}


// ************************************************************************* //
