/*--------------------------------*- C++ -*----------------------------------*\
| =========                 |                                                 |
| \\      /  F ield         | OpenFOAM: The Open Source CFD Toolbox           |
|  \\    /   O peration     | Version:  2206                                  |
|   \\  /    A nd           | Website:  www.openfoam.com                      |
|    \\/     M anipulation  |                                                 |
\*---------------------------------------------------------------------------*/
FoamFile
{
    version     2.0;
    format      ascii;
    arch        "LSB;label=32;scalar=64";
    class       surfaceScalarField;
    location    "0.7";
    object      phi;
}
// * * * * * * * * * * * * * * * * * * * * * * * * * * * * * * * * * * * * * //

dimensions      [0 3 -1 0 0 0 0];

oriented        oriented;

internalField   nonuniform List<scalar> 
3650
(
0.00275108
0.00044892
0.0022437
0.000507383
0.00181431
0.000429386
0.00148292
0.000331392
0.00123939
0.000243531
0.00106657
0.000172817
0.000944899
0.00012167
0.000859251
8.56479e-05
0.000798078
6.11725e-05
0.000753616
4.44625e-05
0.000721132
3.24835e-05
0.00069773
2.34018e-05
0.000681763
1.59667e-05
0.000672416
9.34633e-06
0.000669319
3.0971e-06
0.000672248
-2.92973e-06
0.000680885
-8.63704e-06
0.000696126
-1.52419e-05
0.000718737
-2.26105e-05
0.000749782
-3.10462e-05
0.000790728
-4.09464e-05
0.000843499
-5.27704e-05
0.000910547
-6.7049e-05
0.0009949
-8.43521e-05
0.00110012
-0.000105221
0.00123016
-0.00013004
0.00138908
-0.00015892
0.00158054
-0.000191457
0.0018069
-0.000226367
0.00206799
-0.000261089
0.00235932
-0.000291322
0.00267018
-0.000310863
0.0029817
-0.000311518
0.00326526
-0.000283558
0.00348514
-0.000219881
0.0036055
-0.000120362
0.00360217
3.3337e-06
0.00347489
0.000127278
0.00323504
0.000239848
0.00290638
0.000328668
0.00252838
0.000377997
0.00214285
0.000385523
0.00178351
0.000359342
0.00147177
0.000311736
0.00121641
0.000255362
0.00101654
0.000199869
0.000864935
0.0001516
0.00075233
0.000112604
0.00067143
8.08967e-05
0.000615494
5.59353e-05
0.000578708
3.67839e-05
0.000556412
2.2296e-05
0.000544656
1.17536e-05
0.000540434
4.22208e-06
0.000541213
-7.79973e-07
0.000544871
-3.65863e-06
0.000550031
-5.16076e-06
0.00055585
-5.81889e-06
0.000561772
-5.92313e-06
0.000567404
-5.63119e-06
0.000572498
-5.09468e-06
0.000576964
-4.46658e-06
0.000580792
-3.8286e-06
0.00058401
-3.21776e-06
0.000586667
-2.65785e-06
0.000588834
-2.16641e-06
0.00059058
-1.74618e-06
0.000591973
-1.39305e-06
0.000593073
-1.10037e-06
0.000593933
-8.59648e-07
0.000594595
-6.62696e-07
0.000595096
-5.01372e-07
0.000595465
-3.68393e-07
0.000595721
-2.55833e-07
-1.64611e-07
0.00336547
0.000283451
0.00335152
0.000521326
0.00323315
0.000547761
0.00305587
0.000508668
0.00284899
0.000450415
0.00264284
0.000378964
0.00245845
0.000306059
0.00230217
0.000241927
0.00217298
0.000190364
0.00206826
0.000149181
0.00198504
0.00011571
0.0019202
8.82379e-05
0.00187141
6.47597e-05
0.00183712
4.36358e-05
0.00181636
2.38575e-05
0.00180845
4.97975e-06
0.00181295
-1.31428e-05
0.00183016
-3.24468e-05
0.00186102
-5.347e-05
0.00190678
-7.68112e-05
0.00196928
-0.000103448
0.00205102
-0.000134508
0.00215525
-0.000171285
0.00228602
-0.000215123
0.00244812
-0.000267321
0.00264688
-0.000328799
0.00288789
-0.000399929
0.00317649
-0.000480054
0.00351683
-0.000566708
0.00391065
-0.000654908
0.00435524
-0.000735907
0.00484121
-0.000796834
0.00535017
-0.000820476
0.0058518
-0.000785187
0.0063031
-0.000671184
0.00665453
-0.000471796
0.00685676
-0.000198897
0.00687992
0.000104126
0.00672975
0.000390016
0.00641052
0.000647899
0.00595109
0.000837427
0.00539184
0.00094477
0.00477891
0.000972267
0.00416213
0.000928514
0.00358854
0.000828956
0.00309053
0.000697869
0.0026808
0.000561334
0.00235808
0.000435322
0.00211354
0.000325431
0.00193435
0.000235126
0.00180728
0.000163851
0.00172035
0.000109229
0.00166346
6.86384e-05
0.00162824
3.94421e-05
0.00160821
1.92468e-05
0.00159873
5.82721e-06
0.00159624
-2.66894e-06
0.00159796
-7.54524e-06
0.00160197
-9.93153e-06
0.00160701
-1.06765e-05
0.00161232
-1.03965e-05
0.00161746
-9.6136e-06
0.00162218
-8.55033e-06
0.00162635
-7.38264e-06
0.00162991
-6.22346e-06
0.00163291
-5.16165e-06
0.00163538
-4.22107e-06
0.0016374
-3.40962e-06
0.00163902
-2.72243e-06
0.00164031
-2.14754e-06
0.00164132
-1.66994e-06
0.00164209
-1.27406e-06
0.00164267
-9.44133e-07
0.00164308
-6.67744e-07
-4.08386e-07
0.00332638
0.000157066
0.00346246
0.00038525
0.00352957
0.000480655
0.00353768
0.000500549
0.0035012
0.000486896
0.00343039
0.000449777
0.00333635
0.000400098
0.00323007
0.000348212
0.00312348
0.000296954
0.00302494
0.000247716
0.00293789
0.000202762
0.00286334
0.000162781
0.00280187
0.000126236
0.00275383
9.16705e-05
0.00271927
5.84205e-05
0.00269821
2.60359e-05
0.00269099
-5.91815e-06
0.00269768
-3.91355e-05
0.00271919
-7.49805e-05
0.00275673
-0.000114354
0.00281196
-0.000158679
0.00288709
-0.000209641
0.00298518
-0.000269375
0.00310999
-0.000339934
0.00326614
-0.000423467
0.00345914
-0.000521797
0.00369531
-0.000636099
0.00398147
-0.000766215
0.00432429
-0.000909528
0.00472941
-0.00106004
0.0051992
-0.00120569
0.00573109
-0.00132873
0.00631308
-0.00140246
0.00691397
-0.00138608
0.00748501
-0.00124223
0.00796324
-0.000950032
0.00828974
-0.000525391
0.00844142
-4.7559e-05
0.00840252
0.000428918
0.00818454
0.000865881
0.00781989
0.00120207
0.00733318
0.00143148
0.0067538
0.00155164
0.00611882
0.00156349
0.00546872
0.00147906
0.00484601
0.00132058
0.00428695
0.00112039
0.00381313
0.000909141
0.00343064
0.000707921
0.00313449
0.000531274
0.00291318
0.00038516
0.0027529
0.000269507
0.00264031
0.000181227
0.00256371
0.000116045
0.00251352
6.94409e-05
0.00248214
3.72005e-05
0.00246372
1.57491e-05
0.002454
2.1817e-06
0.00244986
-5.79764e-06
0.0024492
-1.00169e-05
0.0024506
-1.17972e-05
0.00245298
-1.19897e-05
0.00245573
-1.13031e-05
0.00245856
-1.0208e-05
0.00246122
-8.883e-06
0.0024636
-7.54935e-06
0.00246567
-6.28947e-06
0.00246742
-5.15767e-06
0.00246887
-4.17092e-06
0.00247005
-3.32622e-06
0.00247099
-2.61152e-06
0.00247172
-2.01067e-06
0.00247228
-1.50371e-06
0.0024727
-1.08337e-06
-6.57568e-07
0.0032631
9.39621e-05
0.0033903
0.000258059
0.00350666
0.000364286
0.00358882
0.000418395
0.0036404
0.000435311
0.00366338
0.000426804
0.00365946
0.000404014
0.00363523
0.000372441
0.00359837
0.000333816
0.00355344
0.00029265
0.00350347
0.000252733
0.0034535
0.000212742
0.00340711
0.000172632
0.00336681
0.000131972
0.00333405
9.11741e-05
0.00330986
5.02228e-05
0.00329568
8.27002e-06
0.00329243
-3.58851e-05
0.00330117
-8.37254e-05
0.00332338
-0.000136567
0.00336077
-0.000196064
0.00341518
-0.000264049
0.00348955
-0.000343745
0.00358741
-0.000437802
0.00371304
-0.000549089
0.00387255
-0.000681316
0.00407364
-0.000837184
0.00432554
-0.00101812
0.00463907
-0.00122305
0.00502591
-0.00144688
0.00549693
-0.0016767
0.00606342
-0.00189522
0.00672173
-0.00206078
0.00742088
-0.00208522
0.00807801
-0.00189936
0.00860621
-0.00147823
0.00896842
-0.000887597
0.0091328
-0.000211937
0.00908853
0.000473189
0.00889236
0.00106204
0.00858075
0.00151369
0.00817145
0.00184077
0.00768741
0.00203568
0.00714637
0.00210454
0.00657377
0.00205165
0.00599096
0.00190339
0.00542264
0.00168871
0.0049014
0.00143038
0.00445122
0.0011581
0.00408127
0.00090122
0.00378976
0.000676672
0.00356806
0.000491203
0.00340448
0.000344806
0.00328698
0.00023355
0.00320464
0.000151778
0.00314833
9.35077e-05
0.00311085
5.32268e-05
0.00308669
2.63423e-05
0.00307175
9.14131e-06
0.00306306
-1.32206e-06
0.00305844
-7.17778e-06
0.00305634
-9.89176e-06
0.0030558
-1.07667e-05
0.00305617
-1.05719e-05
0.003057
-9.72024e-06
0.00305807
-8.61981e-06
0.00305918
-7.3941e-06
0.00306022
-6.1987e-06
0.00306115
-5.10124e-06
0.00306195
-4.12737e-06
0.00306262
-3.2805e-06
0.00306316
-2.55356e-06
0.00306359
-1.92898e-06
0.00306392
-1.41066e-06
-8.58762e-07
0.00323341
6.05551e-05
0.00331569
0.00017578
0.00341602
0.000263947
0.00351302
0.000321399
0.00359522
0.000353107
0.00365788
0.00036415
0.00370144
0.00036045
0.00372931
0.000344574
0.00374407
0.000319049
0.00374659
0.000290132
0.00373965
0.000259669
0.00372668
0.000225719
0.00371058
0.000188733
0.00369293
0.000149618
0.00367493
0.000109177
0.00365858
6.65659e-05
0.00364613
2.0727e-05
0.00363926
-2.9015e-05
0.00363942
-8.38882e-05
0.00364836
-0.000145511
0.00366786
-0.000215565
0.00369906
-0.000295244
0.00374452
-0.000389203
0.00380839
-0.000501672
0.00389528
-0.000635989
0.00401196
-0.000797992
0.00416741
-0.000992631
0.00437373
-0.00122444
0.00464707
-0.0014964
0.00500774
-0.00180755
0.00547998
-0.00214895
0.00609809
-0.00251332
0.00683423
-0.00279692
0.00756795
-0.00281894
0.00819139
-0.0025228
0.00863551
-0.00192235
0.0088681
-0.00112018
0.00889077
-0.000234607
0.00876997
0.000593985
0.0085489
0.00128311
0.00828934
0.00177325
0.00798442
0.00214569
0.00764296
0.00237714
0.00723771
0.00250979
0.00680281
0.00248655
0.00634081
0.00236539
0.00587218
0.00215733
0.00542151
0.00188105
0.00500911
0.0015705
0.00465048
0.00125985
0.00435089
0.000976261
0.00410996
0.000732132
0.00392257
0.000532194
0.00378093
0.000375191
0.00367641
0.000256298
0.00360091
0.00016901
0.00354749
0.000106643
0.00351048
6.33591e-05
0.00348532
3.43004e-05
0.00346862
1.53778e-05
0.0034578
3.64289e-06
0.00345103
-3.12187e-06
0.00344695
-6.69274e-06
0.00344461
-8.22685e-06
0.00344337
-8.48314e-06
0.00344282
-8.07551e-06
0.00344271
-7.27482e-06
0.00344283
-6.3274e-06
0.00344309
-5.35342e-06
0.00344338
-4.42401e-06
0.00344368
-3.57545e-06
0.00344395
-2.82167e-06
0.00344417
-2.15601e-06
0.00344435
-1.59129e-06
-9.71764e-07
0.00321904
4.15139e-05
0.00327117
0.000123656
0.00334325
0.000191858
0.0034233
0.000241349
0.00350283
0.000273578
0.00357582
0.000291161
0.00363944
0.000296831
0.00369175
0.000292265
0.00373175
0.000279046
0.00376134
0.000260549
0.00378275
0.000238251
0.00379738
0.00021109
0.00380583
0.000180289
0.00380848
0.000146963
0.00380707
0.000110584
0.00380316
7.04802e-05
0.00379813
2.57564e-05
0.00379316
-2.40509e-05
0.00378956
-8.02864e-05
0.00378885
-0.000144802
0.00379258
-0.000219286
0.00380225
-0.000304917
0.0038205
-0.000407458
0.00385149
-0.000532664
0.00389961
-0.000684103
0.00397101
-0.000869398
0.00407541
-0.00109703
0.00422722
-0.00137626
0.00444748
-0.00171665
0.00476646
-0.00212653
0.00522603
-0.00260852
0.00586715
-0.00315445
0.00651982
-0.00344958
0.00702831
-0.00332743
0.00732658
-0.00282107
0.0072246
-0.00182038
0.00685541
-0.000750983
0.00660428
1.65236e-05
0.00652994
0.00066832
0.00653402
0.00127904
0.00664383
0.00166344
0.00667219
0.00211733
0.00662112
0.00242821
0.00649002
0.00264088
0.00629898
0.00267759
0.00605149
0.00261288
0.0057548
0.00245403
0.00543717
0.00219867
0.00512086
0.00188681
0.00482758
0.00155314
0.00457314
0.0012307
0.00436051
0.00094476
0.00418787
0.000704834
0.0040512
0.000511865
0.0039454
0.000362096
0.0038653
0.000249104
0.00380599
0.000165953
0.00376292
0.000106438
0.00373214
6.50794e-05
0.00371061
3.69048e-05
0.00369577
1.84826e-05
0.00368563
7.02124e-06
0.00367882
1.10317e-07
0.00367431
-3.71157e-06
0.00367137
-5.545e-06
0.00366947
-6.17776e-06
0.00366829
-6.09065e-06
0.00366757
-5.61287e-06
0.00366717
-4.94683e-06
0.00366696
-4.21437e-06
0.00366687
-3.48556e-06
0.00366685
-2.80002e-06
0.00366686
-2.16857e-06
0.00366688
-1.61551e-06
-9.89435e-07
0.00321195
2.95654e-05
0.00324672
8.88807e-05
0.00329817
0.000140415
0.00335929
0.000180223
0.0034246
0.000208269
0.00348998
0.00022578
0.00355263
0.000234181
0.00361017
0.000234722
0.00366066
0.000228563
0.00370396
0.000217243
0.00374057
0.000201646
0.00376992
0.000181738
0.00379228
0.000157924
0.00380842
0.000130828
0.00381884
0.00010016
0.00382432
6.49974e-05
0.00382555
2.45316e-05
0.00382344
-2.19396e-05
0.00381861
-7.54569e-05
0.00381158
-0.000137773
0.00380326
-0.000210969
0.00379592
-0.000297578
0.00379112
-0.000402653
0.00379009
-0.000531641
0.00379657
-0.00069058
0.00381635
-0.000889181
0.00385867
-0.00113934
0.00393834
-0.00145593
0.00407871
-0.00185702
0.00431658
-0.0023644
0.00470592
-0.00299786
0.00518957
-0.00363809
0.00535273
-0.00361275
0.00488895
-0.00286365
0.00269604
-0.000441691
0.00105793
4.53792e-19
0.000386873
-5.94141e-19
0.000387276
-1.06095e-18
0.000935726
-1.42877e-18
0.00197704
-1.82357e-18
0.00305009
0.000515449
0.00385576
0.00131166
0.00443468
0.0018493
0.00481147
0.00226408
0.00501173
0.00247733
0.00508986
0.00253475
0.00507136
0.00247252
0.0049774
0.00229264
0.00483621
0.002028
0.00467263
0.00171672
0.00450982
0.0013935
0.00436205
0.00109253
0.00423455
0.000832337
0.00412876
0.000617653
0.00404383
0.00044703
0.00397719
0.000315741
0.00392586
0.000217286
0.00388693
0.000145368
0.00385796
9.40482e-05
0.00383701
5.78527e-05
0.00382191
3.35802e-05
0.00381108
1.78557e-05
0.00380346
7.72566e-06
0.00379807
1.6871e-06
0.00379428
-1.75614e-06
0.00379163
-3.53538e-06
0.0037898
-4.26063e-06
0.00378854
-4.34838e-06
0.00378767
-4.07867e-06
0.00378708
-3.6237e-06
0.00378668
-3.08797e-06
0.00378642
-2.53545e-06
0.00378625
-1.99468e-06
0.00378613
-1.50276e-06
-9.21972e-07
0.00320829
2.12742e-05
0.00323306
6.41094e-05
0.00327107
0.000102405
0.00331811
0.000133186
0.00337053
0.000155845
0.00342538
0.000170936
0.0034803
0.000179256
0.00353341
0.000181612
0.00358319
0.000178785
0.00362877
0.000171661
0.00366958
0.000160836
0.00370486
0.000146459
0.00373414
0.000128648
0.00375754
0.000107422
0.00377503
8.26733e-05
0.00378646
5.35668e-05
0.00379167
1.9315e-05
0.00379073
-2.09958e-05
0.00378383
-6.85547e-05
0.00377099
-0.000124932
0.00375234
-0.000192319
0.0037284
-0.000273637
0.0036991
-0.000373362
0.00366483
-0.000497367
0.00362749
-0.000653245
0.00359021
-0.000851899
0.00355909
-0.00110823
0.00354553
-0.00144238
0.00356942
-0.00188091
0.00366279
-0.00245777
0.00384198
-0.00317705
0.00371919
-0.0035153
0.00269103
-0.00258459
0.000316273
1.99717e-18
1.39264e-18
7.3626e-19
6.69199e-19
-2.59477e-19
2.52185e-19
-3.64934e-20
1.91539e-19
2.45232e-21
2.4995e-19
3.076e-20
1.19624e-18
4.72336e-20
0.000225703
-9.42262e-19
0.00105898
0.000153818
0.00197569
0.000932592
0.00274781
0.00149196
0.00330892
0.00191622
0.00369829
0.00214538
0.00396215
0.00220866
0.00412189
0.00213289
0.00420024
0.00194965
0.00421813
0.00169882
0.00419669
0.00141495
0.00415551
0.00113371
0.00410736
0.000880491
0.00405949
0.000665522
0.00401595
0.000490568
0.00397857
0.000353115
0.00394775
0.00024811
0.00392298
0.000170141
0.00390353
0.000113493
0.00388857
7.28163e-05
0.00387727
4.48778e-05
0.00386905
2.60774e-05
0.00386287
1.39061e-05
0.00385811
6.44351e-06
0.00385457
1.78934e-06
0.00385194
-9.01459e-07
0.00384999
-2.31066e-06
0.00384854
-2.90321e-06
0.00384747
-3.00926e-06
0.00384668
-2.83439e-06
0.0038461
-2.50821e-06
0.00384568
-2.11252e-06
0.00384537
-1.68974e-06
0.00384516
-1.28521e-06
-7.87238e-07
0.00320624
1.50342e-05
0.00322501
4.53365e-05
0.00325451
7.29123e-05
0.003292
9.56896e-05
0.00333488
0.000112969
0.00338092
0.00012489
0.0034283
0.000131876
0.00347542
0.000134492
0.00352094
0.000133266
0.00356389
0.00012871
0.0036035
0.00012123
0.00363899
0.00011097
0.0036697
9.79382e-05
0.00369511
8.20084e-05
0.00371484
6.29483e-05
0.0037282
4.01984e-05
0.00373457
1.29444e-05
0.0037333
-1.9724e-05
0.00372369
-5.89381e-05
0.00370493
-0.000106175
0.0036761
-0.000163488
0.00363616
-0.000233694
0.00358364
-0.000320845
0.0035169
-0.000430627
0.00343457
-0.000570919
0.00333567
-0.000753002
0.00322056
-0.000993116
0.00309281
-0.00131462
0.00296262
-0.00175072
0.00284225
-0.0023374
0.00266285
-0.00299765
0.0018219
-0.00267435
5.5789e-18
-0.000148384
1.04595e-18
-6.98155e-19
1.03512e-19
-9.35179e-20
1.71e-22
4.77983e-24
4.9331e-22
2.70621e-24
1.46044e-21
3.13612e-23
2.28527e-21
5.31797e-23
2.37919e-20
-5.04679e-21
6.0451e-19
1.95523e-20
-9.23606e-05
-7.52851e-19
0.000293214
0.000178888
0.00103795
0.000747227
0.00171397
0.00124021
0.0022776
0.00158174
0.0027365
0.00174977
0.00310029
0.0017691
0.00337663
0.00167331
0.00357683
0.00149862
0.00371345
0.00127833
0.00380098
0.00104619
0.00385435
0.000827116
0.00388478
0.000635092
0.00390024
0.000475112
0.00390639
0.000346965
0.00390706
0.000247435
0.00390475
0.000172452
0.0039011
0.000117145
0.00389688
7.70397e-05
0.00389263
4.91257e-05
0.00388885
2.98544e-05
0.00388574
1.70157e-05
0.00388314
9.05076e-06
0.00388084
4.08756e-06
0.0038789
1.04096e-06
0.0038773
-7.11522e-07
0.00387601
-1.61461e-06
0.00387498
-1.97696e-06
0.00387416
-2.01726e-06
0.00387352
-1.86878e-06
0.00387303
-1.61905e-06
0.00387265
-1.31707e-06
0.00387238
-1.00978e-06
-6.16006e-07
0.00320501
1.00224e-05
0.00322011
3.02366e-05
0.00324419
4.88336e-05
0.0032754
6.44784e-05
0.00331178
7.65926e-05
0.00335153
8.51416e-05
0.00339307
9.03329e-05
0.00343507
9.24953e-05
0.00347634
9.19948e-05
0.00351589
8.91512e-05
0.00355292
8.42054e-05
0.00358662
7.72705e-05
0.00361623
6.83245e-05
0.00364103
5.72057e-05
0.00366035
4.36332e-05
0.00367335
2.71985e-05
0.00367888
7.41742e-06
0.00367578
-1.66292e-05
0.00366267
-4.58254e-05
0.00363791
-8.14131e-05
0.00359951
-0.000125092
0.00354502
-0.000179205
0.00347127
-0.000247093
0.00337419
-0.000333555
0.00324873
-0.000445461
0.00308858
-0.000592844
0.00288601
-0.000790553
0.00263195
-0.00106056
0.0023151
-0.00143387
0.00190545
-0.00192775
0.00127237
-0.00236457
2.17499e-05
-0.000936056
2.94746e-18
2.19715e-18
-9.09196e-21
-1.2036e-19
4.07661e-23
1.53948e-24
8.76776e-23
1.18954e-24
2.09587e-22
3.48199e-24
4.61423e-22
1.02309e-23
1.19418e-21
2.40886e-23
3.79859e-21
5.69055e-23
-1.68418e-21
-3.55352e-21
6.29987e-19
1.23438e-20
-0.000435421
-7.97178e-19
3.60024e-05
0.000275805
0.00060204
0.000674172
0.00116229
0.00102149
0.00168617
0.0012259
0.00215859
0.00129669
0.00256907
0.00126283
0.00291184
0.00115586
0.00318547
0.00100469
0.0033951
0.00083656
0.00355066
0.000671561
0.00366319
0.000522561
0.00374274
0.000395564
0.00379767
0.000292037
0.00383462
0.000210481
0.00385885
0.000148225
0.00387412
0.000101873
0.00388309
6.80736e-05
0.00388803
4.41777e-05
0.00389026
2.76271e-05
0.00389087
1.64088e-05
0.00389074
9.1762e-06
0.00389018
4.65518e-06
0.00388936
1.85241e-06
0.00388845
2.06981e-07
0.00388753
-7.00215e-07
0.0038867
-1.14059e-06
0.00388597
-1.28961e-06
0.00388536
-1.25714e-06
0.00388486
-1.12096e-06
0.00388447
-9.2671e-07
0.00388417
-7.15114e-07
-4.33948e-07
0.00320428
5.74503e-06
0.00321717
1.73458e-05
0.00323791
2.80902e-05
0.00326516
3.72328e-05
0.00329735
4.44027e-05
0.00333295
4.95333e-05
0.00337057
5.27138e-05
0.00340896
5.41088e-05
0.00344703
5.3929e-05
0.00348382
5.23572e-05
0.0035185
4.95229e-05
0.00355028
4.54962e-05
0.00357834
4.02571e-05
0.00360186
3.3685e-05
0.00361995
2.55422e-05
0.00363167
1.54826e-05
0.00363559
3.49619e-06
0.00363021
-1.12431e-05
0.00361361
-2.92266e-05
0.00358351
-5.13161e-05
0.00353708
-7.86609e-05
0.00347068
-0.000112803
0.00337954
-0.000155952
0.00325731
-0.000211327
0.00309547
-0.000283625
0.00288244
-0.00037982
0.0026023
-0.000510413
0.00223298
-0.000691241
0.00174298
-0.000943877
0.00108461
-0.00126938
0.000167353
-0.00144731
5.93289e-18
-0.000154394
-2.74398e-20
-6.31985e-19
1.45127e-23
6.04043e-25
2.62206e-23
-4.75149e-26
6.02117e-23
-1.46534e-27
1.31004e-22
2.31516e-24
2.85411e-22
3.74256e-24
6.83851e-22
6.2912e-24
1.97278e-21
5.58792e-24
7.43065e-21
-2.16602e-23
7.07118e-21
4.00849e-22
1.1033e-18
1.27514e-20
-0.00038319
4.46878e-05
-2.91645e-05
0.000320148
0.000438242
0.000554083
0.000950492
0.000713647
0.00146371
0.000783468
0.0019457
0.000780836
0.00237589
0.000725673
0.00274201
0.000638573
0.00304136
0.000537206
0.00327747
0.000435459
0.00345808
0.000341942
0.00359267
0.00026098
0.00369056
0.000194149
0.0037601
0.000140938
0.00380838
9.99414e-05
0.00384107
6.91881e-05
0.00386249
4.66582e-05
0.00387607
3.05919e-05
0.00388431
1.93902e-05
0.00388893
1.17874e-05
0.00389131
6.79408e-06
0.00389237
3.60064e-06
0.0038926
1.61666e-06
0.00389236
4.53176e-07
0.00389187
-2.12445e-07
0.00389128
-5.52907e-07
0.00389069
-6.93719e-07
0.00389014
-7.11851e-07
0.00388967
-6.52221e-07
0.00388929
-5.46493e-07
0.003889
-4.2199e-07
-2.54461e-07
0.00320388
1.86848e-06
0.00321557
5.64734e-06
0.0032345
9.16532e-06
0.00325955
1.21835e-05
0.00328939
1.45566e-05
0.00332266
1.62653e-05
0.00335804
1.73358e-05
0.00339433
1.78171e-05
0.00343048
1.77766e-05
0.00346557
1.72736e-05
0.00349874
1.63498e-05
0.00352921
1.50289e-05
0.00355616
1.3304e-05
0.00357871
1.11362e-05
0.00359582
8.43268e-06
0.00360627
5.03626e-06
0.00360881
9.46599e-07
0.00360162
-4.04915e-06
0.00358246
-1.00636e-05
0.00354867
-1.75322e-05
0.00349686
-2.68485e-05
0.00342258
-3.85259e-05
0.00331997
-5.33333e-05
0.00318104
-7.24063e-05
0.00299483
-9.7415e-05
0.00274587
-0.000130857
0.00241197
-0.000176522
0.00196089
-0.000240153
0.00134636
-0.000329349
0.000519063
-0.000442083
-0.000467374
-0.000460868
4.79083e-18
-7.45852e-06
-1.19476e-19
-1.31694e-19
1.12183e-23
-1.93883e-26
2.23874e-23
-3.44299e-27
4.96421e-23
1.29918e-24
8.98124e-23
1.58425e-25
1.9604e-22
4.78902e-25
4.69318e-22
1.60251e-24
1.3714e-21
5.19872e-24
4.75078e-21
-6.24459e-24
7.88839e-21
-2.43635e-23
7.07587e-19
-1.67046e-21
-0.000574107
4.48691e-06
-0.000340772
8.68154e-05
4.08942e-05
0.000172418
0.000521728
0.000232814
0.00104392
0.000261274
0.00156088
0.000263879
0.00203939
0.000247169
0.00245901
0.000218948
0.00281107
0.000185152
0.00309586
0.000150665
0.00331905
0.000118755
0.00348899
9.10404e-05
0.00361515
6.79909e-05
0.00370656
4.95286e-05
0.00377126
3.52423e-05
0.00381596
2.44832e-05
0.00384604
1.65794e-05
0.00386571
1.09208e-05
0.00387814
6.96602e-06
0.00388565
4.27399e-06
0.00388995
2.49393e-06
0.0038922
1.3491e-06
0.00389319
6.29112e-07
0.00389344
2.07031e-07
0.00389326
-3.30896e-08
0.00389286
-1.59312e-07
0.00389239
-2.17744e-07
0.00389191
-2.29451e-07
0.00389147
-2.13834e-07
0.0038911
-1.8037e-07
0.00389082
-1.40183e-07
-8.5598e-08
0.00320374
-1.87537e-06
0.00321504
-5.64885e-06
0.00323337
-9.16498e-06
0.00325773
-1.21792e-05
0.00328684
-1.45479e-05
0.00331935
-1.62516e-05
0.00335401
-1.73166e-05
0.00338962
-1.77922e-05
0.00342514
-1.7746e-05
0.00345965
-1.7238e-05
0.00349231
-1.63104e-05
0.00352233
-1.49877e-05
0.00354889
-1.32632e-05
0.00357113
-1.10988e-05
0.00358796
-8.40182e-06
0.00359801
-5.0143e-06
0.0035999
-9.3692e-07
0.0035918
4.04863e-06
0.00357168
1.00516e-05
0.00353664
1.75088e-05
0.00348298
2.68149e-05
0.00340597
3.84843e-05
0.00329935
5.32865e-05
0.00315458
7.23578e-05
0.0029598
9.73681e-05
0.00269813
0.000130814
0.00234512
0.000176483
0.00186486
0.000240111
0.00120623
0.000329281
0.000322191
0.000441953
-0.000599394
0.000460718
4.17627e-18
7.45684e-06
-1.18113e-19
1.31692e-19
9.861e-24
1.95979e-26
2.29493e-23
9.15866e-27
3.98941e-23
-1.62179e-24
8.36267e-23
-1.6807e-25
1.84721e-22
-4.81166e-25
3.98368e-22
-1.60179e-24
1.04014e-21
-5.19658e-24
3.40341e-21
6.24975e-24
4.57886e-21
6.99696e-23
5.49626e-19
1.50932e-21
-0.000605337
-4.48325e-06
-0.000431656
-8.68639e-05
-8.67573e-05
-0.000172479
0.000378905
-0.000232847
0.000901455
-0.000261275
0.00142919
-0.000263856
0.00192349
-0.000247124
0.00236133
-0.000218893
0.00273157
-0.000185093
0.00303283
-0.000150593
0.0032703
-0.000118709
0.00345233
-9.09904e-05
0.00358827
-6.79537e-05
0.00368731
-4.95068e-05
0.00375778
-3.52284e-05
0.00380674
-2.44781e-05
0.0038399
-1.65798e-05
0.00386175
-1.09249e-05
0.00387569
-6.97171e-06
0.00388424
-4.28018e-06
0.00388923
-2.49963e-06
0.00389194
-1.354e-06
0.0038932
-6.32922e-07
0.00389362
-2.09804e-07
0.00389355
3.13351e-08
0.00389323
1.58271e-07
0.0038928
2.17104e-07
0.00389234
2.29014e-07
0.00389191
2.13305e-07
0.00389155
1.79596e-07
0.00389128
1.39056e-07
8.36378e-08
0.00320388
-5.75189e-06
0.00321557
-1.73472e-05
0.0032345
-2.809e-05
0.00325955
-3.72284e-05
0.00328939
-4.43941e-05
0.00332266
-4.95197e-05
0.00335804
-5.26948e-05
0.00339433
-5.40842e-05
0.00343049
-5.38988e-05
0.00346557
-5.23221e-05
0.00349874
-4.94842e-05
0.00352921
-4.54558e-05
0.00355617
-4.02174e-05
0.00357872
-3.36488e-05
0.00359583
-2.55125e-05
0.00360627
-1.54613e-05
0.00360882
-3.48616e-06
0.00360163
1.12421e-05
0.00358247
2.92142e-05
0.00354868
5.12923e-05
0.00349687
7.86272e-05
0.00342259
0.000112761
0.00331997
0.000155905
0.00318105
0.000211279
0.00299484
0.000283578
0.00274588
0.000379777
0.00241198
0.000510373
0.0019609
0.0006912
0.00134636
0.000943813
0.000519059
0.00126926
-0.000467383
0.00144716
4.79087e-18
0.000154383
-1.19485e-19
6.31942e-19
1.11577e-23
-6.02974e-25
2.20859e-23
5.21211e-26
4.95477e-23
1.40453e-26
8.98124e-23
-2.31555e-24
1.96045e-22
-3.73985e-24
4.69346e-22
-6.28622e-24
1.37041e-21
-5.57564e-24
4.77821e-21
2.16999e-23
7.84799e-21
-3.64748e-22
7.07613e-19
-1.27462e-20
-0.000574122
-4.46692e-05
-0.000340808
-0.000320176
4.08467e-05
-0.000554132
0.000521687
-0.000713686
0.0010439
-0.000783485
0.00156087
-0.000780828
0.00203939
-0.000725647
0.00245902
-0.000638519
0.00281108
-0.000537152
0.00309588
-0.000435394
0.00331906
-0.000341882
0.003489
-0.000260937
0.00361516
-0.000194107
0.00370657
-0.000140916
0.00377127
-9.99267e-05
0.00381597
-6.9182e-05
0.00384605
-4.66577e-05
0.00386572
-3.05948e-05
0.00387814
-1.93948e-05
0.00388565
-1.17925e-05
0.00388995
-6.7987e-06
0.0038922
-3.60466e-06
0.00389319
-1.61988e-06
0.00389344
-4.55535e-07
0.00389326
2.10933e-07
0.00389286
5.52028e-07
0.00389239
6.9312e-07
0.00389191
7.11389e-07
0.00389147
6.51718e-07
0.0038911
5.45659e-07
0.00389082
4.20851e-07
2.52456e-07
0.00320428
-1.00291e-05
0.00321717
-3.02378e-05
0.00323791
-4.88334e-05
0.00326516
-6.4474e-05
0.00329735
-7.65842e-05
0.00333296
-8.51284e-05
0.00337057
-9.03144e-05
0.00340896
-9.24713e-05
0.00344703
-9.19655e-05
0.00348382
-8.91173e-05
0.00351851
-8.41682e-05
0.00355028
-7.72319e-05
0.00357835
-6.82867e-05
0.00360187
-5.71714e-05
0.00361997
-4.36051e-05
0.00363168
-2.71788e-05
0.00363561
-7.40815e-06
0.00363022
1.66273e-05
0.00361362
4.58121e-05
0.00358353
8.13889e-05
0.0035371
0.000125058
0.00347069
0.000179163
0.00337955
0.000247047
0.00325732
0.000333507
0.00309549
0.000445414
0.00288246
0.000592801
0.00260232
0.000790514
0.002233
0.00106052
0.00174299
0.00143382
0.0010846
0.00192765
0.00016732
0.00236445
5.9333e-18
0.000936012
-2.74259e-20
-2.19743e-18
1.45086e-23
1.20355e-19
2.62223e-23
-1.53882e-24
6.02108e-23
-1.18383e-24
1.31009e-22
-3.47891e-24
2.85425e-22
-1.02235e-23
6.83889e-22
-2.40714e-23
1.97287e-21
-5.68758e-23
7.43011e-21
3.55362e-21
7.08812e-21
-1.23462e-20
1.10335e-18
7.97161e-19
-0.000383189
-0.000275788
-2.91707e-05
-0.000674192
0.000438242
-0.00102154
0.000950506
-0.00122595
0.00146374
-0.00129672
0.00194574
-0.00126283
0.00237594
-0.00115584
0.00274206
-0.00100464
0.0030414
-0.000836494
0.0032775
-0.000671495
0.00345811
-0.00052249
0.00359269
-0.000395519
0.00369058
-0.000291993
0.00376012
-0.000210457
0.0038084
-0.000148209
0.00384108
-0.000101865
0.0038625
-6.80711e-05
0.00387608
-4.41782e-05
0.00388432
-2.76293e-05
0.00388894
-1.64115e-05
0.00389132
-9.1788e-06
0.00389237
-4.65747e-06
0.0038926
-1.85449e-06
0.00389236
-2.08571e-07
0.00389187
6.99168e-07
0.00389128
1.13993e-06
0.00389069
1.28915e-06
0.00389014
1.25668e-06
0.00388967
1.12038e-06
0.00388929
9.2582e-07
0.003889
7.13848e-07
4.31848e-07
0.00320501
-1.50406e-05
0.00322011
-4.53378e-05
0.00324419
-7.2912e-05
0.0032754
-9.56854e-05
0.00331178
-0.000112961
0.00335153
-0.000124877
0.00339307
-0.000131859
0.00343507
-0.000134469
0.00347634
-0.000133238
0.0035159
-0.000128678
0.00355293
-0.000121195
0.00358663
-0.000110933
0.00361625
-9.79031e-05
0.00364105
-8.19767e-05
0.00366037
-6.29225e-05
0.00367337
-4.01809e-05
0.0036789
-1.29368e-05
0.00367581
1.97207e-05
0.00366269
5.89239e-05
0.00363793
0.000106151
0.00359954
0.000163454
0.00354504
0.000233654
0.00347129
0.0003208
0.00337422
0.00043058
0.00324876
0.000570873
0.0030886
0.000752958
0.00288603
0.000993076
0.00263197
0.00131459
0.00231512
0.00175067
0.00190544
0.00233733
0.00127234
0.00299755
2.17446e-05
0.00267428
2.94747e-18
0.000148378
-9.09165e-21
6.9813e-19
4.07854e-23
9.35257e-20
8.76874e-23
-4.77679e-24
2.096e-22
-2.70077e-24
4.61473e-22
-3.13322e-23
1.1944e-21
-5.31459e-23
3.79898e-21
5.04551e-21
-1.68194e-21
-1.95551e-20
6.29934e-19
7.52792e-19
-0.000435461
-0.000178847
3.5995e-05
-0.000747243
0.000602087
-0.00124028
0.00116237
-0.00158183
0.00168626
-0.00174983
0.00215867
-0.00176914
0.00256915
-0.00167331
0.0029119
-0.00149859
0.00318553
-0.00127826
0.00339514
-0.00104611
0.00355068
-0.000827039
0.00366321
-0.000635019
0.00374276
-0.000475064
0.00379769
-0.000346924
0.00383464
-0.00024741
0.00385887
-0.000172435
0.00387414
-0.000117135
0.0038831
-7.70341e-05
0.00388805
-4.91229e-05
0.00389027
-2.98533e-05
0.00389088
-1.7015e-05
0.00389075
-9.05082e-06
0.00389018
-4.08803e-06
0.00388937
-1.0416e-06
0.00388845
7.1103e-07
0.00388753
1.61416e-06
0.0038867
1.9766e-06
0.00388597
2.01691e-06
0.00388536
1.86829e-06
0.00388486
1.61838e-06
0.00388447
1.31606e-06
0.00388417
1.00836e-06
6.1379e-07
0.00320624
-2.12801e-05
0.00322501
-6.41106e-05
0.00325451
-0.000102405
0.003292
-0.000133182
0.00333488
-0.000155838
0.00338092
-0.000170924
0.0034283
-0.000179239
0.00347543
-0.000181591
0.00352095
-0.000178759
0.0035639
-0.000171631
0.00360351
-0.000160804
0.003639
-0.000146426
0.00366972
-0.000128617
0.00369513
-0.000107394
0.00371486
-8.26506e-05
0.00372823
-5.35521e-05
0.00373461
-1.93098e-05
0.00373334
2.09907e-05
0.00372372
6.85396e-05
0.00370496
0.000124907
0.00367613
0.000192286
0.00363619
0.000273598
0.00358367
0.000373319
0.00351693
0.000497322
0.0034346
0.0006532
0.0033357
0.000851857
0.00322059
0.00110819
0.00309283
0.00144234
0.00296264
0.00188087
0.00284226
0.00245771
0.00266285
0.00317696
0.00182187
0.00351526
5.57956e-18
0.00258456
1.04595e-18
-1.99767e-18
1.03513e-19
-7.35527e-19
1.71023e-22
2.59504e-19
4.93384e-22
3.64944e-20
1.46072e-21
-2.45461e-21
2.2857e-21
-3.07656e-20
2.37951e-20
-4.72412e-20
6.04426e-19
9.42234e-19
-9.2367e-05
-0.000153811
0.000293216
-0.00093256
0.00103801
-0.00149204
0.00171407
-0.00191634
0.00227771
-0.00214547
0.00273659
-0.00220871
0.00310036
-0.0021329
0.00337667
-0.00194963
0.00357685
-0.00169877
0.00371346
-0.00141486
0.00380098
-0.00113363
0.00385435
-0.000880414
0.00388479