/*--------------------------------*- C++ -*----------------------------------*\
| =========                 |                                                 |
| \\      /  F ield         | OpenFOAM: The Open Source CFD Toolbox           |
|  \\    /   O peration     | Version:  2206                                  |
|   \\  /    A nd           | Website:  www.openfoam.com                      |
|    \\/     M anipulation  |                                                 |
\*---------------------------------------------------------------------------*/
FoamFile
{
    version     2.0;
    format      ascii;
    arch        "LSB;label=32;scalar=64";
    class       surfaceVectorField;
    location    "0.7";
    object      Uf;
}
// * * * * * * * * * * * * * * * * * * * * * * * * * * * * * * * * * * * * * //

dimensions      [0 1 -1 0 0 0 0];

internalField   nonuniform List<vector> 
3650
(
(0.859713 0.0533271 0)
(0.903223 0.140287 0)
(0.701155 0.0847186 0)
(0.900205 0.158557 0)
(0.566972 0.0661317 0)
(0.843001 0.134183 0)
(0.463412 0.0366713 0)
(0.751881 0.10356 0)
(0.387308 0.0190037 0)
(0.671603 0.0761035 0)
(0.333303 0.0103359 0)
(0.60607 0.0540052 0)
(0.295281 0.00559411 0)
(0.553543 0.0380219 0)
(0.268516 0.00295655 0)
(0.511126 0.026765 0)
(0.249399 0.00154393 0)
(0.477562 0.0191164 0)
(0.235505 0.000776627 0)
(0.451278 0.0138945 0)
(0.225354 0.00032347 0)
(0.430806 0.0101511 0)
(0.218041 1.26838e-05 0)
(0.415036 0.00731305 0)
(0.213051 -0.000255763 0)
(0.403194 0.00498959 0)
(0.21013 -0.000529055 0)
(0.394785 0.00292073 0)
(0.209162 -0.00083118 0)
(0.389559 0.000967843 0)
(0.210078 -0.00119856 0)
(0.387405 -0.00091554 0)
(0.212777 -0.00164683 0)
(0.388023 -0.00269908 0)
(0.217539 -0.00217669 0)
(0.391524 -0.00476309 0)
(0.224605 -0.00281903 0)
(0.398205 -0.00706578 0)
(0.234307 -0.00361541 0)
(0.408318 -0.00970194 0)
(0.247103 -0.00460502 0)
(0.422297 -0.0127957 0)
(0.263593 -0.00583396 0)
(0.440747 -0.0164908 0)
(0.284546 -0.00735451 0)
(0.464459 -0.0209528 0)
(0.310906 -0.00921907 0)
(0.494431 -0.02636 0)
(0.343788 -0.0114678 0)
(0.531874 -0.0328816 0)
(0.384425 -0.0141114 0)
(0.578173 -0.0406374 0)
(0.434087 -0.0171056 0)
(0.634828 -0.0496624 0)
(0.493918 -0.0203103 0)
(0.703326 -0.0598304 0)
(0.564657 -0.0234371 0)
(0.784923 -0.0707396 0)
(0.646248 -0.0259912 0)
(0.88032 -0.0815903 0)
(0.737286 -0.0272356 0)
(0.98917 -0.091038 0)
(0.834431 -0.0261711 0)
(1.10944 -0.0971447 0)
(0.931781 -0.0216015 0)
(1.23669 -0.0973495 0)
(1.02039 -0.0128581 0)
(1.36393 -0.088612 0)
(1.08911 -0.000554868 0)
(1.48065 -0.068713 0)
(1.12672 0.0130488 0)
(1.5734 -0.0376131 0)
(1.12568 0.0272403 0)
(1.62717 0.00104178 0)
(1.0859 0.0395263 0)
(1.63573 0.0397742 0)
(1.01095 0.0467282 0)
(1.59803 0.0749524 0)
(0.908243 0.0480866 0)
(1.51598 0.102709 0)
(0.790118 0.0435324 0)
(1.39746 0.118124 0)
(0.669642 0.035817 0)
(1.2548 0.120476 0)
(0.557346 0.026981 0)
(1.10169 0.112294 0)
(0.459929 0.0184187 0)
(0.951067 0.0974174 0)
(0.380127 0.0115203 0)
(0.811547 0.0798005 0)
(0.317668 0.00738659 0)
(0.691509 0.0624592 0)
(0.270292 0.00567284 0)
(0.592471 0.047375 0)
(0.235103 0.00342919 0)
(0.516039 0.0351887 0)
(0.209822 0.00133603 0)
(0.456982 0.0252802 0)
(0.192342 0.000659228 0)
(0.413751 0.0174798 0)
(0.180846 7.49501e-05 0)
(0.383368 0.011495 0)
(0.173879 -0.000411223 0)
(0.362565 0.00696751 0)
(0.170205 -0.000700288 0)
(0.34911 0.00367301 0)
(0.168886 -0.000941536 0)
(0.341054 0.0013194 0)
(0.169129 -0.00107994 0)
(0.336731 -0.000243742 0)
(0.170272 -0.00107169 0)
(0.334958 -0.00114332 0)
(0.171885 -0.000990253 0)
(0.334874 -0.00161274 0)
(0.173703 -0.000881995 0)
(0.335784 -0.0018184 0)
(0.175554 -0.000768385 0)
(0.337211 -0.00185098 0)
(0.177314 -0.000661516 0)
(0.338884 -0.00175975 0)
(0.178906 -0.000557882 0)
(0.340553 -0.00159209 0)
(0.180301 -0.000462814 0)
(0.342135 -0.00139581 0)
(0.181498 -0.000378904 0)
(0.343565 -0.00119644 0)
(0.182503 -0.000306586 0)
(0.344815 -0.00100555 0)
(0.183334 -0.000245395 0)
(0.345879 -0.000830578 0)
(0.184011 -0.000194618 0)
(0.346767 -0.000677002 0)
(0.184556 -0.000153025 0)
(0.347498 -0.000545682 0)
(0.184991 -0.000119311 0)
(0.348092 -0.000435327 0)
(0.185335 -9.2158e-05 0)
(0.348568 -0.000343866 0)
(0.185604 -7.03541e-05 0)
(0.348946 -0.00026864 0)
(0.185811 -5.28335e-05 0)
(0.349242 -0.000207093 0)
(0.185968 -3.86185e-05 0)
(0.34947 -0.000156679 0)
(0.186083 -2.67119e-05 0)
(0.349642 -0.000115123 0)
(0.186163 -1.83536e-05 0)
(0.349767 -7.99479e-05 0)
(0.349864 -5.1441e-05 0)
(1.05171 0.15505 0)
(1.01329 0.0885785 0)
(1.04735 0.183387 0)
(1.05547 0.162914 0)
(1.01036 0.168484 0)
(1.06751 0.171175 0)
(0.954961 0.143606 0)
(1.04903 0.158959 0)
(0.89031 0.113556 0)
(1.01361 0.140755 0)
(0.825889 0.0848637 0)
(0.970841 0.118426 0)
(0.768267 0.0621222 0)
(0.927165 0.0956435 0)
(0.71943 0.0454409 0)
(0.884341 0.0756023 0)
(0.679057 0.0334501 0)
(0.844941 0.0594888 0)
(0.646333 0.0246912 0)
(0.810514 0.0466189 0)
(0.620324 0.0180773 0)
(0.781339 0.0361594 0)
(0.600063 0.012831 0)
(0.757211 0.0275743 0)
(0.584815 0.00838164 0)
(0.737762 0.0202374 0)
(0.574099 0.00436083 0)
(0.722753 0.0136362 0)
(0.567612 0.000612019 0)
(0.712028 0.00745546 0)
(0.56514 -0.0029131 0)
(0.7055 0.00155617 0)
(0.566548 -0.00657072 0)
(0.703045 -0.00410713 0)
(0.571924 -0.0106531 0)
(0.704629 -0.0101396 0)
(0.581568 -0.0152033 0)
(0.710545 -0.0167094 0)
(0.595869 -0.0204153 0)
(0.721073 -0.0240035 0)
(0.615401 -0.0265278 0)
(0.736661 -0.0323274 0)
(0.640943 -0.0338085 0)
(0.757953 -0.0420336 0)
(0.673517 -0.0425456 0)
(0.7858 -0.0535264 0)
(0.714383 -0.0530206 0)
(0.821321 -0.0672259 0)
(0.765039 -0.0654636 0)
(0.865847 -0.0835379 0)
(0.827151 -0.0799911 0)
(0.920969 -0.10275 0)
(0.902466 -0.0965144 0)
(0.988479 -0.124978 0)
(0.992653 -0.114594 0)
(1.07028 -0.150017 0)
(1.09901 -0.133264 0)
(1.16821 -0.177096 0)
(1.22208 -0.150821 0)
(1.28374 -0.204659 0)
(1.36101 -0.164664 0)
(1.41755 -0.229971 0)
(1.51288 -0.171268 0)
(1.56876 -0.249011 0)
(1.67193 -0.166269 0)
(1.73428 -0.256399 0)
(1.82869 -0.145144 0)
(1.90758 -0.245371 0)
(1.96972 -0.105378 0)
(2.07699 -0.209745 0)
(2.07954 -0.0481348 0)
(2.22628 -0.147436 0)
(2.14274 0.0171149 0)
(2.33602 -0.0621554 0)
(2.14997 0.0810877 0)
(2.39288 0.0325393 0)
(2.10305 0.139231 0)
(2.39301 0.12188 0)
(2.00329 0.183571 0)
(2.33643 0.202468 0)
(1.85971 0.207988 0)
(2.22795 0.261696 0)
(1.68495 0.212124 0)
(2.07855 0.295241 0)
(1.49341 0.199032 0)
(1.90025 0.303833 0)
(1.30067 0.173654 0)
(1.70565 0.290161 0)
(1.12142 0.142412 0)
(1.50861 0.259049 0)
(0.965792 0.111447 0)
(1.32233 0.218084 0)
(0.837749 0.0842023 0)
(1.15797 0.175417 0)
(0.7369 0.0615784 0)
(1.01982 0.136038 0)
(0.660482 0.0435421 0)
(0.909045 0.101697 0)
(0.604485 0.0296188 0)
(0.82379 0.0734769 0)
(0.564776 0.0190879 0)
(0.760467 0.0512036 0)
(0.537609 0.0113234 0)
(0.714882 0.034134 0)
(0.519832 0.00577081 0)
(0.68317 0.0214495 0)
(0.508826 0.00197777 0)
(0.661884 0.0123257 0)
(0.502567 -0.000433195 0)
(0.648164 0.00601461 0)
(0.499603 -0.00186742 0)
(0.639877 0.001821 0)
(0.498824 -0.00263374 0)
(0.635369 -0.000834042 0)
(0.499363 -0.00295653 0)
(0.633339 -0.00235789 0)
(0.500616 -0.00298576 0)
(0.632839 -0.0031036 0)
(0.502192 -0.00281017 0)
(0.63329 -0.0033364 0)
(0.503849 -0.00252768 0)
(0.634224 -0.0032489 0)
(0.505457 -0.00220596 0)
(0.63538 -0.00300425 0)
(0.506933 -0.00188268 0)
(0.636581 -0.00267198 0)
(0.508234 -0.00157732 0)
(0.637726 -0.00230707 0)
(0.509348 -0.00130071 0)
(0.638768 -0.00194483 0)
(0.510284 -0.00105875 0)
(0.639679 -0.00161301 0)
(0.511058 -0.00085197 0)
(0.640455 -0.00131908 0)
(0.511688 -0.000678379 0)
(0.641103 -0.00106551 0)
(0.512195 -0.000534395 0)
(0.641636 -0.000850758 0)
(0.512597 -0.000415797 0)
(0.642066 -0.000671107 0)
(0.512912 -0.000318353 0)
(0.642409 -0.000521857 0)
(0.513153 -0.000238047 0)
(0.642677 -0.000398145 0)
(0.513333 -0.00017108 0)
(0.642883 -0.000295042 0)
(0.513462 -0.000113592 0)
(0.643033 -0.00020867 0)
(0.643155 -0.000127621 0)
(1.0395 0.111252 0)
(1.00908 0.0490832 0)
(1.08202 0.157704 0)
(1.04738 0.120391 0)
(1.10299 0.165482 0)
(1.08766 0.150205 0)
(1.10553 0.159696 0)
(1.11064 0.156422 0)
(1.09413 0.147929 0)
(1.11707 0.152155 0)
(1.072 0.130533 0)
(1.11468 0.140555 0)
(1.04261 0.110046 0)
(1.10233 0.125031 0)
(1.0094 0.0901258 0)
(1.08384 0.108816 0)
(0.976086 0.0727411 0)
(1.06188 0.0927982 0)
(0.945293 0.0580686 0)
(1.03905 0.0774114 0)
(0.91809 0.045685 0)
(1.01679 0.0633632 0)
(0.894795 0.0350058 0)
(0.9962 0.0508691 0)
(0.875584 0.0254505 0)
(0.977928 0.0394486 0)
(0.860573 0.0166042 0)
(0.962503 0.028647 0)
(0.849772 0.00820861 0)
(0.950291 0.0182564 0)
(0.843191 0.000123892 0)
(0.941471 0.00813622 0)
(0.840934 -0.00797636 0)
(0.936242 -0.00184942 0)
(0.843024 -0.0165754 0)
(0.934755 -0.0122298 0)
(0.849746 -0.0259708 0)
(0.937325 -0.0234314 0)
(0.861478 -0.0364549 0)
(0.944283 -0.0357357 0)
(0.878738 -0.0484487 0)
(0.956077 -0.0495871 0)
(0.902217 -0.0624516 0)
(0.9733 -0.0655128 0)
(0.93287 -0.0790144 0)
(0.99668 -0.0841796 0)
(0.971873 -0.0986738 0)
(1.02735 -0.106229 0)
(1.02067 -0.121879 0)
(1.06644 -0.132333 1.3731e-33)
(1.08098 -0.14893 0)
(1.11562 -0.163062 -1.34781e-33)
(1.15478 -0.179835 0)
(1.17688 -0.198781 0)
(1.24421 -0.21405 0)
(1.25255 -0.239442 0)
(1.35134 -0.25018 0)
(1.34526 -0.284227 0)
(1.47794 -0.285595 0)
(1.45778 -0.331261 0)
(1.62475 -0.31609 0)
(1.59255 -0.376777 0)
(1.79097 -0.335678 0)
(1.75117 -0.415227 0)
(1.97284 -0.336334 0)
(1.93442 -0.43827 0)
(2.16061 -0.309613 0)
(2.13577 -0.433149 0)
(2.33906 -0.249608 0)
(2.33794 -0.388196 0)
(2.48851 -0.157762 0)
(2.51821 -0.296885 0)
(2.59054 -0.043079 0)
(2.65107 -0.164185 0)
(2.63794 0.0755678 0)
(2.73945 -0.0148622 0)
(2.62579 0.185856 0)
(2.75103 0.134037 0)
(2.55767 0.280696 0)
(2.71492 0.270588 0)
(2.44372 0.348717 0)
(2.62777 0.375648 0)
(2.29162 0.386156 0)
(2.50162 0.447337 0)
(2.11056 0.393631 0)
(2.34611 0.484889 0)
(1.91213 0.374554 0)
(2.16863 0.488592 0)
(1.70898 0.33393 0)
(1.97848 0.462205 0)
(1.51438 0.281649 0)
(1.78523 0.412682 0)
(1.33967 0.227356 0)
(1.60089 0.350121 0)
(1.1916 0.17596 0)
(1.43328 0.284107 0)
(1.07208 0.131183 0)
(1.2899 0.221225 0)
(0.979529 0.0944463 0)
(1.17309 0.166023 0)
(0.910369 0.0655467 0)
(1.08181 0.120363 0)
(0.860282 0.0435659 0)
(1.0129 0.084221 0)
(0.825098 0.0273756 0)
(0.962475 0.0566335 0)
(0.80116 0.0158339 0)
(0.926596 0.0362639 0)
(0.785474 0.00787121 0)
(0.901787 0.0217003 0)
(0.775669 0.00259233 0)
(0.885146 0.0116251 0)
(0.769914 -0.000721584 0)
(0.874366 0.00492159 0)
(0.766874 -0.00262158 0)
(0.867668 0.000681782 0)
(0.765582 -0.00354287 0)
(0.863753 -0.00181176 0)
(0.765376 -0.00383626 0)
(0.861698 -0.00313027 0)
(0.765813 -0.003766 0)
(0.860847 -0.00368662 0)
(0.766556 -0.00349885 0)
(0.860681 -0.00374677 0)
(0.767416 -0.003115 0)
(0.860935 -0.00353222 0)
(0.768299 -0.00268448 0)
(0.861389 -0.00319 0)
(0.76913 -0.00226206 0)
(0.861931 -0.00277594 0)
(0.769876 -0.00187573 0)
(0.862488 -0.00235917 0)
(0.770522 -0.00153357 0)
(0.863014 -0.00196546 0)
(0.771069 -0.00123791 0)
(0.863484 -0.00161177 0)
(0.771521 -0.000986868 0)
(0.863889 -0.00130341 0)
(0.771889 -0.000776172 0)
(0.86423 -0.00103944 0)
(0.772184 -0.000600444 0)
(0.86451 -0.0008161 0)
(0.772414 -0.000453866 0)
(0.864735 -0.000628334 0)
(0.772589 -0.000331532 0)
(0.864912 -0.000469908 0)
(0.772719 -0.00022193 0)
(0.865043 -0.000338553 0)
(0.865156 -0.00020549 0)
(1.01972 0.0665889 0)
(1.00421 0.0293632 0)
(1.05947 0.113392 0)
(1.02714 0.0806433 0)
(1.09583 0.138708 0)
(1.06418 0.113839 0)
(1.12151 0.146807 0)
(1.09777 0.130748 0)
(1.13763 0.144004 0)
(1.12172 0.136035 0)
(1.14481 0.135238 0)
(1.13953 0.133376 0)
(1.14358 0.124069 0)
(1.1485 0.126254 0)
(1.13601 0.111671 0)
(1.15142 0.116388 0)
(1.12449 0.0978074 0)
(1.15027 0.104318 0)
(1.11045 0.0830426 0)
(1.14463 0.091453 0)
(1.09483 0.0686898 0)
(1.1365 0.0789791 0)
(1.07922 0.055277 0)
(1.12698 0.066482 0)
(1.06472 0.0425641 0)
(1.117 0.0539475 0)
(1.05213 0.03031 0)
(1.10741 0.0412413 0)
(1.04189 0.0183256 0)
(1.09878 0.0284919 0)
(1.03433 0.00638675 0)
(1.09157 0.0156946 0)
(1.0299 -0.00580918 0)
(1.08623 0.00258438 0)
(1.02888 -0.0187186 0)
(1.08324 -0.0112141 0)
(1.03162 -0.0327758 0)
(1.08305 -0.0261642 0)
(1.03856 -0.0483885 0)
(1.08609 -0.0426773 0)
(1.05024 -0.0660956 0)
(1.09285 -0.0612701 0)
(1.06724 -0.086581 0)
(1.10393 -0.0825152 0)
(1.09048 -0.110624 0)
(1.11971 -0.10742 0)
(1.12107 -0.139038 1.3731e-33)
(1.14162 -0.136813 0)
(1.16032 -0.172606 2.62971e-35)
(1.17045 -0.17159 1.3731e-33)
(1.21017 -0.211982 -1.34781e-33)
(1.20824 -0.212911 -1.34781e-33)
(1.27301 -0.257525 0)
(1.25716 -0.26162 0)
(1.35173 -0.308949 0)
(1.32011 -0.318162 0)
(1.44971 -0.36498 0)
(1.4008 -0.382204 0)
(1.5706 -0.422578 0)
(1.50389 -0.45215 0)
(1.71779 -0.476494 0)
(1.63438 -0.52397 0)
(1.89482 -0.518255 0)
(1.79861 -0.592255 0)
(2.10054 -0.533935 0)
(2.00307 -0.643993 0)
(2.31903 -0.507703 0)
(2.22876 -0.651632 0)
(2.52438 -0.428691 0)
(2.44666 -0.593549 0)
(2.68944 -0.297367 0)
(2.62366 -0.461947 0)
(2.80263 -0.13246 0)
(2.75455 -0.277374 0)
(2.854 0.0462719 0)
(2.81843 -0.0662303 0)
(2.84016 0.219061 0)
(2.81277 0.147872 0)
(2.77886 0.363921 0)
(2.76954 0.331889 0)
(2.68148 0.473974 0)
(2.69006 0.473027 0)
(2.55358 0.547429 0)
(2.58572 0.57524 0)
(2.40232 0.581637 0)
(2.467 0.636151 0)
(2.23324 0.577882 0)
(2.32624 0.657668 0)
(2.0543 0.541981 0)
(2.17128 0.641142 0)
(1.87218 0.482595 0)
(2.00887 0.594809 0)
(1.69457 0.4089 0)
(1.84429 0.527721 0)
(1.53169 0.33071 0)
(1.68523 0.446994 0)
(1.39101 0.256721 0)
(1.54022 0.361907 0)
(1.2754 0.192162 0)
(1.41551 0.281631 0)
(1.1843 0.13904 0)
(1.3127 0.21146 0)
(1.11502 0.0972029 0)
(1.23103 0.153501 0)
(1.0639 0.0654216 0)
(1.16827 0.107752 0)
(1.02718 0.0420553 0)
(1.12142 0.0729843 0)
(1.00145 0.0254109 0)
(1.0873 0.0474307 0)
(0.983853 0.0139352 0)
(1.06302 0.0292212 0)
(0.972141 0.00631716 0)
(1.04611 0.0166334 0)
(0.964591 0.0014904 0)
(1.03461 0.00823197 0)
(0.959923 -0.00139033 0)
(1.02698 0.00285666 0)
(0.957205 -0.00296206 0)
(1.02208 -0.000413143 0)
(0.955762 -0.00364275 0)
(1.01905 -0.00224306 0)
(0.955106 -0.0037577 0)
(1.01724 -0.00309118 0)
(0.954938 -0.00358966 0)
(1.01627 -0.00336461 0)
(0.955052 -0.00326638 0)
(1.01581 -0.00330371 0)
(0.955314 -0.0028587 0)
(1.01566 -0.00303757 0)
(0.955648 -0.00243573 0)
(1.01569 -0.00269369 0)
(0.955993 -0.00203292 0)
(1.01582 -0.00231066 0)
(0.956319 -0.00166878 0)
(1.016 -0.00193709 0)
(0.956609 -0.00134936 0)
(1.01619 -0.00159414 0)
(0.95686 -0.00107427 0)
(1.01637 -0.0012898 0)
(0.957069 -0.000840177 0)
(1.01654 -0.00102516 0)
(0.957238 -0.000641673 0)
(1.01668 -0.000797986 0)
(0.957371 -0.000475317 0)
(1.01679 -0.000602805 0)
(0.957474 -0.00032155 0)
(1.01688 -0.000440831 0)
(1.01696 -0.000268363 0)
(1.01044 0.0441395 0)
(1.00232 0.0189235 0)
(1.03615 0.0802373 0)
(1.01545 0.0549313 0)
(1.06751 0.105048 0)
(1.0408 0.0824835 0)
(1.09782 0.119238 0)
(1.07012 0.100437 0)
(1.12351 0.12464 0)
(1.09732 0.110346 0)
(1.14309 0.12373 0)
(1.12081 0.113797 0)
(1.1567 0.118408 0)
(1.13976 0.11264 0)
(1.16541 0.109414 0)
(1.15407 0.10768 0)
(1.17002 0.0985698 0)
(1.16508 0.0997028 0)
(1.17081 0.0879431 0)
(1.17135 0.0906662 0)
(1.16864 0.077275 0)
(1.17478 0.0811466 0)
(1.16459 0.065803 0)
(1.17592 0.0705373 0)
(1.15956 0.0533855 0)
(1.17553 0.0589789 0)
(1.15404 0.040112 0)
(1.17348 0.0467555 0)
(1.14841 0.0264051 0)
(1.17064 0.0341177 0)
(1.14331 0.0123384 0)
(1.16749 0.0208019 0)
(1.13941 -0.00238748 0)
(1.16443 0.00647718 0)
(1.13727 -0.0181753 0)
(1.16201 -0.0090672 0)
(1.13732 -0.0355053 0)
(1.16072 -0.0262151 0)
(1.14011 -0.0549236 0)
(1.16099 -0.0454721 0)
(1.14621 -0.0770198 0)
(1.16334 -0.067364 0)
(1.15596 -0.102677 0)
(1.16836 -0.0922638 0)
(1.17016 -0.132848 0)
(1.17617 -0.121626 0)
(1.19012 -0.168487 0)
(1.18852 -0.156772 0)
(1.21728 -0.211049 0)
(1.20608 -0.198746 0)
(1.25374 -0.261908 0)
(1.23096 -0.249373 0)
(1.30231 -0.321958 0)
(1.26541 -0.310197 0)
(1.36679 -0.391651 0)
(1.31283 -0.382638 0)
(1.45221 -0.470349 0)
(1.37807 -0.467624 0)
(1.56492 -0.555359 0)
(1.46799 -0.564859 0)
(1.71249 -0.642125 0)
(1.59096 -0.671546 0)
(1.90565 -0.719961 0)
(1.76077 -0.785413 0)
(2.1357 -0.764614 0)
(1.97947 -0.874038 0)
(2.36499 -0.747285 0)
(2.18488 -0.88092 0)
(2.55981 -0.645763 0)
(2.36808 -0.788374 0)
(2.6986 -0.459981 0)
(2.46014 -0.600735 0)
(2.77128 -0.223705 0)
(2.4768 -0.350056 0)
(2.77836 0.0229252 0)
(2.43942 -0.0733147 0)
(2.74062 0.249255 0)
(2.40447 0.18562 0)
(2.67153 0.429371 0)
(2.37968 0.400972 0)
(2.59042 0.560191 0)
(2.35164 0.554142 0)
(2.49513 0.651226 0)
(2.31695 0.670528 0)
(2.38843 0.703533 0)
(2.26749 0.742855 0)
(2.26178 0.715842 0)
(2.19362 0.784309 0)
(2.12588 0.690819 0)
(2.1001 0.777047 0)
(1.9815 0.637843 0)
(1.99388 0.739184 0)
(1.83506 0.565209 0)
(1.87759 0.674167 0)
(1.69422 0.478887 0)
(1.75599 0.587828 0)
(1.56535 0.388088 0)
(1.6368 0.490782 0)
(1.45327 0.302184 0)
(1.52766 0.393704 0)
(1.35965 0.226909 0)
(1.4333 0.305081 0)
(1.28436 0.164781 0)
(1.35486 0.228791 0)
(1.2258 0.115855 0)
(1.29181 0.166311 0)
(1.18154 0.0787623 0)
(1.24252 0.117247 0)
(1.14888 0.0515424 0)
(1.20493 0.080093 0)
(1.12528 0.0321434 0)
(1.17686 0.0528158 0)
(1.10859 0.0187161 0)
(1.15633 0.033326 0)
(1.09702 0.00972571 0)
(1.14163 0.0197997 0)
(1.08916 0.00392825 0)
(1.1313 0.0107189 0)
(1.08394 0.000371261 0)
(1.12416 0.00480556 0)
(1.08056 -0.00164766 0)
(1.11933 0.0011384 0)
(1.07845 -0.00266466 0)
(1.11614 -0.000975586 0)
(1.07717 -0.00305375 0)
(1.11406 -0.00209148 0)
(1.07644 -0.00305852 0)
(1.11273 -0.00257089 0)
(1.07605 -0.00286101 0)
(1.11192 -0.00265098 0)
(1.07588 -0.00255973 0)
(1.11143 -0.0025236 0)
(1.07585 -0.00220798 0)
(1.11116 -0.00227338 0)
(1.07589 -0.00185794 0)
(1.11102 -0.00197731 0)
(1.07596 -0.00153196 0)
(1.11097 -0.00167294 0)
(1.07606 -0.00123937 0)
(1.11097 -0.0013825 0)
(1.07615 -0.000982534 0)
(1.111 -0.00111733 0)
(1.07623 -0.000759266 0)
(1.11104 -0.000881772 0)
(1.0763 -0.00056864 0)
(1.11108 -0.000673753 0)
(1.07636 -0.0003879 0)
(1.11112 -0.000497278 0)
(1.11115 -0.000303676 0)
(1.00595 0.0305638 0)
(1.00138 0.0129731 0)
(1.02224 0.0573677 0)
(1.00944 0.0386425 0)
(1.04477 0.0777412 0)
(1.02634 0.0599555 0)
(1.06978 0.0914479 0)
(1.04812 0.0754216 0)
(1.09464 0.0993796 0)
(1.07115 0.0854931 0)
(1.11744 0.102538 0)
(1.09358 0.0909878 0)
(1.13733 0.101749 0)
(1.11444 0.0927596 0)
(1.15367 0.0977197 0)
(1.13299 0.091333 0)
(1.16617 0.0914416 0)
(1.14878 0.0872019 0)
(1.17542 0.0837575 0)
(1.16143 0.0814214 0)
(1.18211 0.0746355 0)
(1.17154 0.0744533 0)
(1.18668 0.0640543 0)
(1.17942 0.0659656 0)
(1.18932 0.0527397 0)
(1.18539 0.0563403 0)
(1.19015 0.041156 0)
(1.18912 0.0459259 0)
(1.18971 0.0288984 0)
(1.19114 0.0345576 0)
(1.18849 0.0153707 0)
(1.19196 0.022025 0)
(1.18692 0.000305717 0)
(1.19169 0.00804888 0)
(1.18536 -0.0165115 0)
(1.19074 -0.00751591 0)
(1.18424 -0.0355022 0)
(1.1895 -0.0250895 0)
(1.18402 -0.0571475 0)
(1.18814 -0.0452506 0)
(1.18518 -0.0817006 0)
(1.18711 -0.068527 0)
(1.1882 -0.110143 0)
(1.18687 -0.0952865 0)
(1.19391 -0.144453 0)
(1.18787 -0.127331 0)
(1.20359 -0.186021 0)
(1.19123 -0.166457 0)
(1.21863 -0.236142 0)
(1.19759 -0.213782 0)
(1.24094 -0.296856 0)
(1.20866 -0.271687 0)
(1.27357 -0.370338 0)
(1.22673 -0.342821 0)
(1.32101 -0.458562 0)
(1.25543 -0.430081 0)
(1.38984 -0.562886 0)
(1.30029 -0.536454 0)
(1.48952 -0.68306 0)
(1.36985 -0.66454 0)
(1.63313 -0.818515 0)
(1.47614 -0.815162 0)
(1.83349 -0.948607 0)
(1.63599 -0.985764 0)
(2.03744 -1.01396 0)
(1.81417 -1.07799 0)
(2.19635 -0.968776 0)
(1.87956 -1.03982 0)
(2.28956 -0.816279 0)
(1.83516 -0.881584 0)
(2.25769 -0.567726 0)
(1.64826 -0.568867 0)
(2.14231 -0.254746 0)
(1.38469 -0.234682 4.72951e-18)
(2.06384 0.0526779 0)
(1.19995 0.00516364 0)
(2.04061 0.313147 0)
(1.24708 0.20885 -2.91853e-17)
(2.04188 0.51123 0)
(1.36596 0.3997 0)
(2.0762 0.653367 0)
(1.44003 0.519826 -1.02331e-19)
(2.08506 0.750762 0)
(1.59565 0.661666 0)
(2.0691 0.81239 0)
(1.6991 0.758814 0)
(2.02813 0.837397 0)
(1.75909 0.825275 0)
(1.96843 0.820486 0)
(1.77598 0.836747 0)
(1.89109 0.772236 0)
(1.7598 0.816525 0)
(1.79837 0.694822 0)
(1.72065 0.766883 0)
(1.69912 0.599293 0)
(1.6621 0.687086 0)
(1.60027 0.496932 0)
(1.59181 0.589629 0)
(1.50862 0.397548 0)
(1.51842 0.485355 0)
(1.42911 0.308047 0)
(1.44918 0.384593 0)
(1.36266 0.231371 0)
(1.38824 0.295238 0)
(1.30871 0.168622 0)
(1.33684 0.220261 0)
(1.266 0.119312 0)
(1.29476 0.159958 0)
(1.23294 0.0819144 0)
(1.26127 0.113155 0)
(1.20791 0.0544033 0)
(1.23528 0.077845 0)
(1.18937 0.0347132 0)
(1.21549 0.0518604 0)
(1.17591 0.0210163 0)
(1.2007 0.033262 0)
(1.16629 0.0117518 0)
(1.18988 0.0203373 0)
(1.15957 0.00568508 0)
(1.18207 0.0115327 0)
(1.15493 0.00189663 0)
(1.17656 0.00577582 0)
(1.15176 -0.000342221 0)
(1.17271 0.00219414 0)
(1.14963 -0.00156356 0)
(1.17003 3.4474e-05 0)
(1.14822 -0.0021278 0)
(1.16818 -0.00115986 0)
(1.1473 -0.00229141 0)
(1.16693 -0.00173281 0)
(1.14671 -0.0022248 0)
(1.16608 -0.00193055 0)
(1.14634 -0.00203416 0)
(1.16551 -0.00190333 0)
(1.14612 -0.00178538 0)
(1.16514 -0.00175402 0)
(1.14599 -0.0015183 0)
(1.16489 -0.00154589 0)
(1.14592 -0.00125708 0)
(1.16474 -0.00131699 0)
(1.1459 -0.00101465 0)
(1.16464 -0.00108924 0)
(1.14589 -0.000795411 0)
(1.16459 -0.000875006 0)
(1.14589 -0.000602292 0)
(1.16456 -0.000677677 0)
(1.1459 -0.000413522 0)
(1.16454 -0.000504847 0)
(1.16452 -0.000309199 0)
(1.00373 0.0217368 0)
(1.00091 0.00923919 0)
(1.0146 0.0415618 0)
(1.00629 0.0277752 0)
(1.03068 0.0575967 0)
(1.01808 0.0438797 0)
(1.04978 0.0692897 0)
(1.03414 0.0563198 0)
(1.07019 0.0769267 0)
(1.05226 0.0650841 0)
(1.09062 0.0810574 0)
(1.0711 0.0705564 0)
(1.1102 0.0821994 0)
(1.08986 0.0731814 0)
(1.12818 0.0807783 0)
(1.10785 0.0733506 0)
(1.14396 0.0773011 0)
(1.12445 0.0714259 0)
(1.15749 0.0722348 0)
(1.13926 0.0678885 0)
(1.16893 0.0657985 0)
(1.15225 0.0630145 0)
(1.1781 0.0581143 0)
(1.16338 0.0567931 0)
(1.18509 0.0492921 0)
(1.17243 0.0493514 0)
(1.19013 0.0392754 0)
(1.1796 0.0408837 0)
(1.19339 0.0279387 0)
(1.18478 0.0313001 0)
(1.1951 0.0151306 0)
(1.18829 0.0203117 0)
(1.19548 0.000683082 0)
(1.19006 0.00766614 0)
(1.19482 -0.0156342 0)
(1.19029 -0.00685614 0)
(1.19331 -0.0343249 0)
(1.18914 -0.0235803 0)
(1.19112 -0.0560171 0)
(1.18663 -0.043054 0)
(1.18852 -0.0813768 0)
(1.18296 -0.0659279 0)
(1.18623 -0.111611 0)
(1.17833 -0.0929933 0)
(1.18472 -0.148315 0)
(1.1732 -0.125829 0)
(1.1844 -0.193 0)
(1.16781 -0.166138 0)
(1.18643 -0.247896 0)
(1.16255 -0.215806 2.31757e-32)
(1.19261 -0.316067 0)
(1.1586 -0.277869 -2.29101e-32)
(1.20583 -0.400989 0)
(1.1578 -0.356045 0)
(1.23073 -0.506678 0)
(1.16329 -0.454979 0)
(1.2746 -0.63758 0)
(1.18021 -0.580319 0)
(1.34893 -0.798087 0)
(1.21693 -0.738875 0)
(1.4706 -0.98852 0)
(1.28765 -0.936832 0)
(1.62174 -1.1315 0)
(1.38813 -1.1369 0)
(1.67273 -1.13439 0)
(1.38054 -1.12898 0)
(1.5278 -0.929764 0)
(1.14121 -0.894891 0)
(1.2097 -0.549788 0)
(0.734575 -0.390436 0)
(0.827008 -0.192161 4.72951e-18)
(0.504104 0.14181 0)
(0.448345 -0.00627623 4.72951e-18)
(0.286056 -0.185669 4.72951e-18)
(0.409006 0.0558508 -2.91853e-17)
(0.153473 -0.331546 0)
(0.595516 0.116415 -2.91853e-17)
(0.227269 -0.446489 -2.91853e-17)
(0.703662 0.261464 -1.02331e-19)
(0.344096 -0.569866 0)
(0.953155 0.471647 -1.02331e-19)
(0.433613 0.212896 -1.02331e-19)
(1.20493 0.646125 0)
(0.672099 0.409894 0)
(1.38584 0.758868 0)
(0.897131 0.577905 0)
(1.50359 0.815906 0)
(1.10764 0.707525 0)
(1.56617 0.827043 0)
(1.25626 0.774167 0)
(1.59058 0.808328 0)
(1.34686 0.79211 0)
(1.5848 0.757142 0)
(1.39977 0.772662 0)
(1.55544 0.675424 0)
(1.42208 0.71645 0)
(1.51132 0.576667 0)
(1.42048 0.633751 0)
(1.4602 0.472002 0)
(1.40211 0.536473 0)
(1.40932 0.37218 0)
(1.37466 0.435469 0)
(1.36314 0.284853 0)
(1.34472 0.341416 0)
(1.3233 0.212328 0)
(1.31598 0.260105 0)
(1.29024 0.154438 0)
(1.29024 0.193016 0)
(1.2637 0.109624 0)
(1.26827 0.139697 0)
(1.24287 0.0757417 0)
(1.25026 0.098669 0)
(1.22683 0.0507493 0)
(1.23587 0.0679018 0)
(1.21467 0.0328388 0)
(1.22461 0.0454276 0)
(1.20561 0.0203212 0)
(1.21601 0.0293901 0)
(1.19907 0.0117798 0)
(1.20953 0.018079 0)
(1.19435 0.00617092 0)
(1.20471 0.0104938 0)
(1.19096 0.00262735 0)
(1.2013 0.00557991 0)
(1.18858 0.000481635 0)
(1.19878 0.00241427 0)
(1.1869 -0.000727416 0)
(1.19695 0.000527219 0)
(1.18571 -0.00134126 0)
(1.19562 -0.000548795 0)
(1.18489 -0.00158535 0)
(1.19465 -0.00110481 0)
(1.18431 -0.00160727 0)
(1.19396 -0.00133145 0)
(1.18392 -0.0015043 0)
(1.19347 -0.00135887 0)
(1.18365 -0.00133756 0)
(1.19312 -0.00127458 0)
(1.18346 -0.00114405 0)
(1.19287 -0.00113241 0)
(1.18334 -0.000946001 0)
(1.19269 -0.00096499 0)
(1.18326 -0.000755008 0)
(1.19256 -0.000792327 0)
(1.1832 -0.000579176 0)
(1.19247 -0.000623337 0)
(1.18317 -0.000400443 0)
(1.19241 -0.000469614 0)
(1.19236 -0.000288116 0)
(1.00259 0.0156843 0)
(1.00066 0.00664818 0)
(1.01033 0.0303223 0)
(1.00456 0.0200342 0)
(1.02221 0.0426214 0)
(1.01327 0.0320017 0)
(1.03691 0.052018 0)
(1.02552 0.0416205 0)
(1.05329 0.0585659 0)
(1.03989 0.0487017 0)
(1.07043 0.0625278 0)
(1.05542 0.0534174 0)
(1.08759 0.0642034 0)
(1.07144 0.0560174 0)
(1.10419 0.0638961 0)
(1.08741 0.0567538 0)
(1.11975 0.0619356 0)
(1.10279 0.0558704 0)
(1.13399 0.0586073 0)
(1.11722 0.053644 0)
(1.14674 0.0540221 0)
(1.13046 0.0502614 0)
(1.15777 0.0482245 0)
(1.14234 0.0457684 0)
(1.16692 0.0412751 0)
(1.15258 0.0402026 0)
(1.17423 0.0331936 0)
(1.1611 0.0335694 0)
(1.1797 0.0238393 0)
(1.16782 0.0258354 0)
(1.18327 0.012968 0)
(1.1727 0.0167396 0)
(1.1849 0.000306511 0)
(1.17557 0.00603593 0)
(1.1846 -0.0145039 0)
(1.17632 -0.00656119 0)
(1.18245 -0.031889 0)
(1.17488 -0.0214234 0)
(1.17843 -0.0524272 0)
(1.17115 -0.0390411 0)
(1.17261 -0.0768948 0)
(1.16502 -0.0600997 0)
(1.16512 -0.106432 0)
(1.15637 -0.0855116 0)
(1.15597 -0.142673 0)
(1.14507 -0.116676 0)
(1.14526 -0.187693 2.31757e-32)
(1.13092 -0.155427 0)
(1.13359 -0.244227 2.81481e-34)
(1.11381 -0.204139 2.31757e-32)
(1.12194 -0.315997 -2.29101e-32)
(1.09395 -0.266219 -2.29101e-32)
(1.11222 -0.407935 0)
(1.07202 -0.346321 0)
(1.10798 -0.526428 0)
(1.04967 -0.450742 0)
(1.11544 -0.679736 0)
(1.02994 -0.587785 0)
(1.14462 -0.87511 0)
(1.02056 -0.768053 0)
(1.20062 -1.08024 0)
(1.02617 -0.992828 0)
(1.16225 -1.12304 0)
(1.00176 -1.09853 0)
(0.840948 -0.831417 0)
(0.698208 -0.807685 0)
(0.484105 -0.356989 0)
(0.321142 0.624117 0)
(0.435199 -0.060357 0)
(0.0331425 0.230081 0)
(0.209125 0 0)
(0 -0.0810866 0)
(0.0788077 0 0)
(0 -0.0114042 0)
(0.059856 0 0)
(0 0.00076635 0)
(0.0781093 0 0)
(0 0.00961251 0)
(0.373824 0.0470344 0)
(0 0.0147605 0)
(0.14954 0.166357 0)
(0.0261781 -0.294457 0)
(0.330933 0.339182 0)
(0.0610799 0.128584 -1.48077e-18)
(0.617403 0.52456 0)
(0.25189 0.291435 -1.58398e-17)
(0.85869 0.66174 0)
(0.482013 0.466238 0)
(1.03404 0.734896 0)
(0.702229 0.59882 0)
(1.15572 0.753765 0)
(0.870542 0.670431 0)
(1.23817 0.731434 0)
(0.998762 0.690207 0)
(1.28809 0.675178 0)
(1.09419 0.66653 0)
(1.31258 0.594233 0)
(1.16165 0.609267 0)
(1.31817 0.500501 0)
(1.20465 0.530883 0)
(1.31146 0.404952 0)
(1.22929 0.44217 0)
(1.2986 0.316816 0)
(1.2409 0.354285 0)
(1.28355 0.241025 0)
(1.24427 0.275153 0)
(1.26859 0.178629 0)
(1.24295 0.207975 0)
(1.25498 0.129144 0)
(1.23917 0.153303 0)
(1.2433 0.0911877 0)
(1.23442 0.110348 0)
(1.23367 0.0628576 0)
(1.22956 0.0775345 0)
(1.22593 0.0421939 0)
(1.22507 0.053169 0)
(1.21985 0.027327 0)
(1.22113 0.0354664 0)
(1.21518 0.0169299 0)
(1.21786 0.0227551 0)
(1.21165 0.0100065 0)
(1.21511 0.0140243 0)
(1.20908 0.00545782 0)
(1.21303 0.00814919 0)
(1.20715 0.00252363 0)
(1.21135 0.00434566 0)
(1.20566 0.000739918 0)
(1.21009 0.0020136 0)
(1.20455 -0.000290111 0)
(1.20907 0.00055917 0)
(1.20373 -0.000831621 0)
(1.20826 -0.000281706 0)
(1.20312 -0.00106586 0)
(1.20763 -0.000722082 0)
(1.20267 -0.00111598 0)
(1.20715 -0.000907253 0)
(1.20233 -0.00105994 0)
(1.20678 -0.000940392 0)
(1.20209 -0.00094665 0)
(1.20649 -0.000885748 0)
(1.20191 -0.000806575 0)
(1.20627 -0.000783816 0)
(1.20177 -0.000657313 0)
(1.20611 -0.000660164 0)
(1.20168 -0.000511388 0)
(1.20599 -0.000528045 0)
(1.20161 -0.000355776 0)
(1.2059 -0.000401628 0)
(1.20582 -0.000246012 0)
(1.00195 0.0112462 0)
(1.00051 0.0046982 0)
(1.00782 0.0218824 0)
(1.00354 0.0141677 0)
(1.01703 0.0310503 0)
(1.01037 0.0227851 0)
(1.02875 0.0382759 0)
(1.02017 0.029903 0)
(1.04215 0.0434924 0)
(1.03196 0.0353028 0)
(1.05654 0.0468282 0)
(1.04501 0.039028 0)
(1.07134 0.0484746 0)
(1.05878 0.0412113 0)
(1.08607 0.0486315 0)
(1.0728 0.0420286 0)
(1.10029 0.047498 0)
(1.08665 0.0416457 0)
(1.11372 0.045249 0)
(1.09995 0.0402218 0)
(1.12609 0.0419796 0)
(1.11244 0.0378845 0)
(1.13718 0.0377224 0)
(1.12389 0.034678 0)
(1.14678 0.0324822 0)
(1.13406 0.0306057 0)
(1.15472 0.0262216 0)
(1.14274 0.0256276 0)
(1.16089 0.0187856 0)
(1.14975 0.0196713 0)
(1.16506 0.00992539 0)
(1.15491 0.012562 0)
(1.16705 -0.000631011 0)
(1.15797 0.00404511 0)
(1.16666 -0.013209 0)
(1.15863 -0.00616376 0)
(1.16365 -0.0282309 0)
(1.15659 -0.0184182 0)
(1.15779 -0.0462762 0)
(1.1515 -0.0331798 0)
(1.14878 -0.0681435 0)
(1.14297 -0.05109 0)
(1.1363 -0.0949686 0)
(1.13049 -0.0730295 0)
(1.11989 -0.128345 0)
(1.11346 -0.100264 0)
(1.09903 -0.170434 0)
(1.09108 -0.134571 0)
(1.0733 -0.224249 0)
(1.06244 -0.178412 3.11116e-33)
(1.0424 -0.294071 0)
(1.0265 -0.235313 -3.10605e-33)
(1.00643 -0.385924 0)
(0.982164 -0.310349 0)
(0.966503 -0.508201 0)
(0.928623 -0.41082 0)
(0.925818 -0.671816 0)
(0.865011 -0.5471 0)
(0.888202 -0.882741 0)
(0.797027 -0.730438 0)
(0.83214 -1.0122 0)
(0.702856 -0.936765 0)
(0.569343 -0.780121 0)
(0.497732 -0.835736 -3.11858e-16)
(1.74341 -0.267925 0)
(0.0899574 -0.33666 -4.56252e-18)
(0.32686 0 0)
(0 -0.218174 0)
(0.0323474 0 0)
(0 -0.0292243 0)
(5.34375e-05 0 0)
(0 1.4937e-06 0)
(0.000154159 0 0)
(0 8.4569e-07 0)
(0.000456389 0 0)
(0 9.80039e-06 0)
(0.000714146 0 0)
(0 1.66186e-05 0)
(0.00743498 0 0)
(0 -0.00157712 0)
(0.188909 0.0235243 -1.48077e-18)
(0 0.0061101 0)
(-0.0720234 0.102633 -1.73205e-17)
(-0.059488 -0.235266 -1.48077e-18)
(0.0916295 0.250159 -1.58398e-17)
(-0.0513488 0.103891 -1.58398e-17)