/*--------------------------------*- C++ -*----------------------------------*\
| =========                 |                                                 |
| \\      /  F ield         | OpenFOAM: The Open Source CFD Toolbox           |
|  \\    /   O peration     | Version:  2206                                  |
|   \\  /    A nd           | Website:  www.openfoam.com                      |
|    \\/     M anipulation  |                                                 |
\*---------------------------------------------------------------------------*/
FoamFile
{
    version     2.0;
    format      ascii;
    arch        "LSB;label=32;scalar=64";
    class       volScalarField;
    location    "0.09";
    object      p;
}
// * * * * * * * * * * * * * * * * * * * * * * * * * * * * * * * * * * * * * //

dimensions      [0 2 -2 0 0 0 0];

internalField   nonuniform List<scalar> 
15000
(
0
0
0
0
0
0
0
0
0
0
0
0
0
0
0
0
0
0
0
0
0
0
0
0
0
0
0
0
0
0
0
0
0
0
0
0
0
0
0
0
0
0
0
0
0
0
0
0
0
0
0
0
0
0
0
0
0
0
0
0
0
0
0
0
0
0
0
0
0
0
0
0
0
0
0
0
0
0
0
0
0
0
0
0
0
0
0
0
0
0
0
0
0
0
0
0
0
0
0
0
0
0
0
0
0
0
0
0
0
0
0
0
0
0
0
0
0
0
0
0
0
0
0
0
0
0
0
0
0
0
0
0
0
0
0
0
0
0
0
0
0
0
0
0
0
0
0
0
0
0
0
0
0
0
0
0
0
0
0
0
0
0
0
0
0
0
0
0
0
0
0
0
0
0
0
0
0
0
0
0
0
0
0
0
0
0
0
0
0
0
0
0
0
0
0
0
0
0
0
0
0
0
0
0
0
0
0
0
0
0
0
0
0
0
0
0
0
0
0
0
0
0
0
0
0
0
0
0
0
0
0
0
0
0
0
0
0
0
0
0
0
0
0
0
0
0
0
0
0
0
0
0
0
0
0
0
0
0
0
0
0
0
0
0
0
0
0
0
0
0
0
0
0
0
0
0
0
0
0
0
0
0
0
0
0
0
0
0
0
0
0
0
0
0
0
0
0
0
0
0
0
0
0
0
0
0
0
0
0
0
0
0
0
0
0
0
0
0
0
0
0
0
0
0
0
0
0
0
0
0
0
0
0
0
0
0
0
0
0
0
0
0
0
0
0
0
0
0
0
0
0
0
0
0
0
0
0
0
0
0
0
0
0
0
0
0
0
0
0
0
0
0
0
0
0
0
0
0
0
0
0
0
0
0
0
0
0
0
0
0
0
0
0
0
0
0
0
0
0
0
0
0
0
0
0
0
0
0
0
0
0
0
0
0
0
0
0
0
0
0
0
0
0
0
0
0
0
0
0
0
0
0
0
0
0
0
0
0
0
0
0
0
0
0
0
0
0
0
0
0
0
0
0
0
0
0
0
0
0
0
0
0
0
0
0
0
0
0
0
0
0
0
0
0
0
0
0
0
0
0
0
0
0
0
0
0
0
0
0
0
0
0
0
0
0
0
0
0
0
0
0
0
0
0
0
0
0
0
0
0
0
0
0
0
0
0
0
0
0
0
0
0
0
0
0
0
0
0
0
0
0
0
0
0
0
0
0
0
0
0
0
0
0
0
0
0
0
0
0
0
0
0
0
0
0
0
0
0
0
0
0
0
0
0
0
0
0
0
0
0
0
0
0
0
0
0
0
0
0
0
0
0
0
0
0
0
0
0
0
0
0
0
0
0
0
0
0
0
0
0
0
0
0
0
0
0
0
0
0
0
0
0
0
0
0
0
0
0
0
0
0
0
0
0
0
0
0
0
0
0
0
0
0
0
0
0
0
0
0
0
0
0
0
0
0
0
0
0
0
0
0
0
0
0
0
0
0
0
0
0
0
0
0
0
0
0
0
0
0
0
0
0
0
0
0
0
0
0
0
0
0
0
0
0
0
0
0
0
0
0
0
0
0
0
0
0
0
0
0
0
0
0
0
0
0
0
0
0
0
0
0
0
0
0
0
0
0
0
0
0
0
0
0
0
0
0
0
0
0
0
0
0
0
0
0
0
0
0
0
0
0
0
0
0
0
0
0
0
0
0
0
0
0
0
0
0
0
0
0
0
0
0
0
0
0
0
0
0
0
0
0
0
0
0
0
0
0
0
0
0
0
0
0
0
0
0
0
0
0
0
0
0
0
0
0
0
0
0
0
0
0
0
0
0
0
0
0
0
0
0
0
0
0
0
0
0
0
0
0
0
0
0
0
0
0
0
0
0
0
0
0
0
0
0
0
0
0
0
0
0
0
0
0
0
0
0
0
0
0
0
0
0
0
0
0
0
0
0
0
0
0
0
0
0
0
0
0
0
0
0
0
0
0
0
0
0
0
0
0
0
0
0
0
0
0
0
0
0
0
0
0
0
0
0
0
0
0
0
0
0
0
0
0
0
0
0
0
0
0
0
0
0
0
0
0
0
0
0
0
0
0
0
0
0
0
0
0
0
0
0
0
0
0
0
0
0
0
0
0
0
0
0
0
0
0
0
0
0
0
0
0
0
0
0
0
0
0
0
0
0
0
0
0
0
0
0
0
0
0
0
0
0
0
0
0
0
0
0
0
0
0
0
0
0
0
0
0
0
0
0
0
0
0
0
0
0
0
0
0
0
0
0
0
0
0
0
0
0
0
0
0
0
0
0
0
71.2481
71.22
71.0265
70.8323
70.7096
70.6769
70.7411
70.9001
71.1487
71.4798
71.8859
72.3595
72.893
73.4793
74.1118
74.7857
75.4969
76.2418
77.01
77.7912
78.5831
79.3811
80.1796
80.9732
81.7567
82.5254
83.2745
83.9999
84.6976
85.3642
85.9965
86.5919
87.1476
87.6599
88.1238
88.5669
88.9551
89.2965
89.5948
89.8509
90.0651
90.2376
90.3691
90.4606
90.513
90.5271
90.504
90.4466
90.358
90.2405
90.0967
89.9289
89.7392
89.5287
89.2989
89.0514
88.7881
88.5104
88.22
87.9183
87.6066
87.2864
86.9588
86.6249
86.2857
85.9422
85.5953
85.2457
84.8942
84.5414
84.1878
83.8341
83.4805
83.1276
82.7756
82.425
82.0758
81.7284
81.3828
81.0394
80.698
80.359
80.0223
79.688
79.356
79.0264
78.6992
78.3744
78.0519
77.7317
77.4137
77.0979
76.7843
76.4727
76.1631
75.8554
75.5496
75.2456
74.9432
74.6425
74.3433
74.0455
73.7492
73.4542
73.1604
72.8678
72.5764
72.2859
71.9965
71.7079
71.4203
71.1334
70.8473
70.5619
70.2771
69.993
69.7093
69.4262
69.1436
68.8614
68.5796
68.2981
68.017
67.7361
67.4555
67.1752
66.8951
66.6151
66.3353
66.0556
65.7761
65.4967
65.2173
64.938
64.6588
64.3797
64.1005
63.8214
63.5423
63.2632
62.9842
62.7051
62.426
62.147
61.8679
61.5889
61.3099
61.0309
60.752
60.4731
60.1943
59.9156
59.637
59.3586
59.0804
58.8024
58.5247
58.2473
57.9702
57.6936
57.4173
57.1414
56.8657
56.5901
56.3141
56.0371
55.758
55.4736
55.1929
55.0212
55.2425
54.6115
53.753
0
0
0
0
0
0
0
0
0
0
0
0
0
0
0
0
0
0
0
0
0
0
0
0
0
0
0
0
0
0
0
0
0
0
0
0
0
0
0
0
0
0
0
0
0
0
0
0
0
0
0
0
0
0
0
0
0
0
0
0
0
0
0
0
0
0
0
0
0
0
0
0
0
0
0
0
0
71.2746
71.2419
71.1181
70.9934
70.9196
70.9162
70.9933
71.1524
71.3916
71.7065
72.0915
72.5407
73.0481
73.6074
74.2127
74.8594
75.5429
76.2593
76.9998
77.7554
78.5227
79.2976
80.0741
80.847
81.6113
82.3622
83.0952
83.806
84.4909
85.1463
85.7691
86.3566
86.9064
87.4167
87.8855
88.3148
88.7011
89.0442
89.3441
89.602
89.8188
89.9949
90.1309
90.2276
90.2861
90.3073
90.2928
90.2449
90.1659
90.0582
89.9242
89.7661
89.5855
89.3837
89.1624
88.9234
88.6683
88.3987
88.1161
87.8219
87.5176
87.2044
86.8834
86.5559
86.2228
85.8851
85.5436
85.1991
84.8525
84.5042
84.1548
83.805
83.4551
83.1056
82.7568
82.409
82.0625
81.7176
81.3743
81.0329
80.6934
80.356
80.0209
79.6879
79.3571
79.0286
78.7023
78.3784
78.0566
77.7371
77.4197
77.1044
76.7911
76.4799
76.1705
75.8631
75.5574
75.2535
74.9512
74.6504
74.3512
74.0535
73.7571
73.4619
73.1681
72.8753
72.5837
72.2931
72.0035
71.7148
71.4269
71.1399
70.8535
70.5679
70.283
69.9986
69.7147
69.4314
69.1486
68.8662
68.5842
68.3025
68.0212
67.7401
67.4593
67.1788
66.8985
66.6184
66.3384
66.0586
65.7789
65.4993
65.2198
64.9404
64.6611
64.3818
64.1025
63.8233
63.5441
63.265
62.9858
62.7067
62.4276
62.1486
61.8695
61.5905
61.3115
61.0326
60.7537
60.475
60.1963
59.9178
59.6395
59.3614
59.0835
58.806
58.5289
58.2523
57.9762
57.7007
57.426
57.1522
56.8794
56.608
56.3384
56.072
55.811
55.5602
55.3426
55.2309
55.2264
54.8849
54.5392
54.913
54.8417
53.9966
53.1949
52.4921
51.7518
50.7798
50.1793
0
0
0
0
0
0
0
0
0
0
0
0
0
0
0
0
0
0
0
0
0
0
0
0
0
0
0
0
0
0
0
0
0
0
0
0
0
0
0
0
0
0
0
0
0
0
0
0
0
0
0
0
0
0
0
0
0
0
0
0
0
0
0
0
0
0
0
0
0
71.415
71.3217
71.2087
71.1148
71.0692
71.0855
71.1725
71.3331
71.5664
71.8698
72.2391
72.6697
73.1565
73.6943
74.2774
74.9015
75.5623
76.2565
76.9763
77.7111
78.4588
79.215
79.9741
80.7308
81.4801
82.2173
82.9379
83.6377
84.3127
84.9595
85.5751
86.1567
86.7022
87.2099
87.6787
88.1038
88.4887
88.8322
89.1333
89.3924
89.6104
89.7883
89.9267
90.0265
90.089
90.116
90.1089
90.0695
89.9995
89.9008
89.7756
89.6256
89.4524
89.2577
89.0435
88.8114
88.563
88.3001
88.0239
87.7361
87.4378
87.1305
86.8152
86.493
86.1651
85.8323
85.4955
85.1555
84.813
84.4686
84.123
83.7767
83.43
83.0836
82.7376
82.3924
82.0484
81.7056
81.3644
81.0249
80.6872
80.3514
80.0177
79.686
79.3564
79.0289
78.7036
78.3805
78.0595
77.7406
77.4238
77.109
76.7962
76.4853
76.1763
75.869
75.5636
75.2598
74.9576
74.657
74.3578
74.0601
73.7636
73.4685
73.1746
72.8818
72.59
72.2993
72.0096
71.7207
71.4327
71.1455
70.8591
70.5733
70.2881
70.0036
69.7196
69.4361
69.1531
68.8705
68.5883
68.3065
68.025
67.7438
67.4629
67.1822
66.9017
66.6214
66.3413
66.0613
65.7815
65.5018
65.2222
64.9427
64.6632
64.3838
64.1045
63.8252
63.5459
63.2667
62.9875
62.7083
62.4292
62.1501
61.871
61.592
61.313
61.0341
60.7553
60.4767
60.1982
59.9198
59.6417
59.3639
59.0864
58.8093
58.5327
58.2567
57.9814
57.707
57.4337
57.1617
56.8915
56.6236
56.3589
56.0993
55.8476
55.6094
55.398
55.2384
55.0966
54.8592
54.7185
54.5707
54.1749
53.6574
53.1593
52.6574
52.0797
51.3836
51.1149
51.3397
50.6515
49.8108
48.9609
48.1405
47.281
46.2733
45.5373
0
0
0
0
0
0
0
0
0
0
0
0
0
0
0
0
0
0
0
0
0
0
0
0
0
0
0
0
0
0
0
0
0
0
0
0
0
0
0
0
0
0
0
0
0
0
0
0
0
0
0
0
0
0
0
0
0
0
0
0
0
71.5902
71.4161
71.2841
71.1968
71.1644
71.1919
71.2857
71.4477
71.6776
71.9731
72.3313
72.7483
73.2199
73.7413
74.3068
74.9129
75.5553
76.2346
76.9406
77.6586
78.3911
79.1334
79.8796
80.6245
81.363
82.0903
82.8019
83.4937
84.1618
84.8027
85.4134
85.991
86.5333
87.0385
87.505
87.9303
88.3152
88.6592
88.9616
89.2224
89.4427
89.623
89.7642
89.8674
89.9339
89.9652
89.9631
89.929
89.8645
89.7716
89.652
89.5076
89.3398
89.1507
88.942
88.7153
88.4724
88.2147
87.9437
87.6609
87.3676
87.065
86.7543
86.4366
86.113
85.7843
85.4514
85.1151
84.7761
84.4351
84.0927
83.7494
83.4056
83.0617
82.7183
82.3754
82.0335
81.6928
81.3535
81.0157
80.6795
80.3453
80.0129
79.6824
79.3539
79.0274
78.7031
78.3808
78.0605
77.7423
77.4261
77.1118
76.7995
76.489
76.1803
75.8734
75.5682
75.2646
74.9626
74.6621
74.363
74.0653
73.769
73.4738
73.1799
72.8871
72.5953
72.3045
72.0147
71.7258
71.4377
71.1504
70.8638
70.5779
70.2927
70.008
69.7239
69.4402
69.1571
68.8744
68.592
68.3101
68.0284
67.7471
67.466
67.1852
66.9046
66.6242
66.344
66.0639
65.7839
65.5041
65.2244
64.9447
64.6652
64.3857
64.1063
63.8269
63.5476
63.2683
62.989
62.7098
62.4306
62.1515
61.8724
61.5933
61.3144
61.0355
60.7568
60.4782
60.1997
59.9215
59.6436
59.3659
59.0887
58.8119
58.5357
58.2602
57.9856
57.712
57.4398
57.1693
56.9008
56.6353
56.3736
56.1173
55.8688
55.6314
55.4101
55.2105
55.0107
54.7712
54.5506
54.2572
53.8598
53.4208
52.9656
52.487
51.9697
51.4446
51.1907
50.8365
50.1621
49.5727
48.9943
48.3901
47.7055
46.9322
46.7102
47.0015
45.9662
44.9675
44.01
43.0778
42.0838
41.0148
40.1254
0
0
0
0
0
0
0
0
0
0
0
0
0
0
0
0
0
0
0
0
0
0
0
0
0
0
0
0
0
0
0
0
0
0
0
0
0
0
0
0
0
0
0
0
0
0
0
0
0
0
0
0
0
71.7448
71.4938
71.3319
71.2398
71.2117
71.2449
71.3428
71.5061
71.7338
72.0242
72.3746
72.7819
73.2426
73.7524
74.3037
74.8957
75.5244
76.1965
76.8922
77.5957
78.3168
79.0491
79.7862
80.5227
81.2536
81.9742
82.6798
83.3664
84.03
84.6672
85.2747
85.8498
86.3901
86.8937
87.359
87.7845
88.1698
88.5143
88.8178
89.0804
89.3026
89.4852
89.6291
89.7352
89.8049
89.8397
89.841
89.8105
89.7499
89.6609
89.5453
89.405
89.2415
89.0567
88.8523
88.63
88.3913
88.1379
87.8712
87.5925
87.3032
87.0046
86.6978
86.3839
86.0639
85.7387
85.4091
85.0761
84.7402
84.4022
84.0626
83.722
83.3807
83.0393
82.6981
82.3574
82.0175
81.6786
81.3411
81.0049
80.6703
80.3374
80.0063
79.6771
79.3497
79.0242
78.7008
78.3794
78.0599
77.7423
77.4267
77.113
76.8012
76.4912
76.1829
75.8763
75.5714
75.2681
74.9663
74.666
74.3671
74.0695
73.7732
73.4782
73.1843
72.8915
72.5997
72.309
72.0191
71.7302
71.442
71.1546
70.868
70.582
70.2967
70.0119
69.7277
69.444
69.1607
68.8779
68.5954
68.3134
68.0316
67.7502
67.469
67.188
66.9073
66.6268
66.3465
66.0663
65.7862
65.5063
65.2265
64.9468
64.6671
64.3875
64.108
63.8286
63.5492
63.2698
62.9905
62.7112
62.432
62.1528
61.8737
61.5946
61.3156
61.0368
60.758
60.4795
60.2011
59.9229
59.645
59.3675
59.0904
58.8139
58.5379
58.2628
57.9886
57.7156
57.444
57.1742
56.9068
56.6423
56.3817
56.126
55.8768
55.6352
55.4025
55.1777
54.9469
54.6866
54.4128
54.0959
53.7146
53.286
52.8302
52.3549
51.8631
51.3777
50.9892
50.5027
49.9199
49.368
48.8091
48.2257
47.6045
46.9842
46.6768
46.2827
45.4606
44.7649
44.0938
43.3888
42.5868
41.7214
41.4666
41.9279
40.5783
39.3876
38.2975
37.2235
36.0091
34.5613
34.3778
0
0
0
0
0
0
0
0
0
0
0
0
0
0
0
0
0
0
0
0
0
0
0
0
0
0
0
0
0
0
0
0
0
0
0
0
0
0
0
0
0
0
0
0
0
71.8503
71.5341
71.3419
71.2408
71.2129
71.2491
71.3498
71.5145
71.7414
72.0287
72.374
72.7748
73.2287
73.7322
74.2716
74.8539
75.4821
76.1364
76.8153
77.5162
78.2317
78.9578
79.6891
80.4202
81.1464
81.8627
82.5646
83.248
83.9089
84.5437
85.1493
85.7229
86.2622
86.765
87.2299
87.6555
88.0411
88.3863
88.6907
88.9546
89.1784
89.3628
89.5086
89.617
89.6891
89.7265
89.7305
89.7029
89.6453
89.5595
89.4472
89.3101
89.1501
88.9688
88.768
88.5493
88.3143
88.0644
87.8013
87.5262
87.2405
86.9453
86.6419
86.3313
86.0146
85.6925
85.3661
85.036
84.7031
84.3678
84.0309
83.6928
83.3539
83.0148
82.6758
82.3372
81.9993
81.6623
81.3265
80.992
80.6589
80.3275
79.9977
79.6697
79.3435
79.0191
78.6966
78.3761
78.0575
77.7407
77.4258
77.1128
76.8015
76.492
76.1842
75.878
75.5735
75.2705
74.969
74.6689
74.3702
74.0728
73.7767
73.4818
73.188
72.8953
72.6036
72.3128
72.023
71.7341
71.4459
71.1585
70.8718
70.5858
70.3004
70.0156
69.7313
69.4475
69.1641
68.8812
68.5987
68.3165
68.0347
67.7531
67.4719
67.1908
66.91
66.6294
66.349
66.0687
65.7885
65.5085
65.2286
64.9488
64.6691
64.3894
64.1098
63.8303
63.5508
63.2713
62.992
62.7126
62.4333
62.1541
61.8749
61.5958
61.3168
61.0379
60.7592
60.4806
60.2022
59.924
59.6462
59.3687
59.0916
58.8152
58.5393
58.2643
57.9902
57.7174
57.446
57.1765
56.9092
56.6447
56.3835
56.1263
55.8738
55.6258
55.3815
55.1375
54.884
54.6061
54.3066
53.9733
53.5918
53.1685
52.7184
52.2509
51.7718
51.2923
50.8429
50.3501
49.8032
49.2481
48.68
48.0979
47.5044
46.9234
46.45
45.8869
45.2015
44.5525
43.8991
43.2182
42.496
41.7932
41.4448
41.0072
40.038
39.2185
38.4386
37.6169
36.6857
35.7682
35.5626
35.3561
34.182
32.9225
31.6951
30.4652
29.0344
27.4202
27.4319
0
0
0
0
0
0
0
0
0
0
0
0
0
0
0
0
0
0
0
0
0
0
0
0
0
0
0
0
0
0
0
0
0
0
0
0
0
71.8869
71.52
71.3026
71.1925
71.1637
71.202
71.3056
71.4724
71.7001
71.9866
72.3296
72.7271
73.1779
73.6818
74.2154
74.7829
75.4066
76.0507
76.721
77.423
78.1368
78.8599
79.5881
80.3165
81.0402
81.7543
82.4544
83.1361
83.7957
84.4294
85.0342
85.6072
86.1461
86.6487
87.1136
87.5394
87.9255
88.2712
88.5764
88.8412
89.0661
89.2517
89.3989
89.5089
89.5827
89.622
89.6281
89.6027
89.5474
89.464
89.3543
89.2199
89.0627
88.8843
88.6864
88.4707
88.2387
87.992
87.7319
87.4599
87.1773
86.8853
86.5849
86.2774
85.9636
85.6445
85.321
84.9937
84.6635
84.3309
83.9965
83.6609
83.3244
82.9876
82.6508
82.3143
81.9784
81.6433
81.3093
80.9764
80.645
80.3151
79.9867
79.66
79.335
79.0118
78.6904
78.3709
78.0532
77.7373
77.4232
77.1109
76.8003
76.4913
76.1841
75.8784
75.5743
75.2717
74.9706
74.6709
74.3724
74.0753
73.7794
73.4847
73.191
72.8984
72.6068
72.3162
72.0264
71.7375
71.4494
71.162
70.8753
70.5893
70.3039
70.019
69.7347
69.4508
69.1674
68.8845
68.6019
68.3196
68.0377
67.7561
67.4747
67.1936
66.9127
66.632
66.3515
66.0711
65.7909
65.5108
65.2308
64.9509
64.671
64.3913
64.1116
63.832
63.5524
63.2729
62.9935
62.714
62.4347
62.1554
61.8761
61.5969
61.3179
61.0389
60.7601
60.4814
60.203
59.9248
59.6468
59.3693
59.0922
58.8156
58.5397
58.2646
57.9904
57.7173
57.4457
57.1757
56.9077
56.642
56.379
56.1188
55.8612
55.6055
55.3497
55.0897
54.8179
54.525
54.2087
53.8611
53.4753
53.0565
52.6134
52.1529
51.6805
51.2023
50.7295
50.231
49.6945
49.1414
48.5758
48.0003
47.4196
46.8448
46.3057
45.7262
45.0798
44.4261
43.7621
43.0847
42.3976
41.7339
41.1901
40.5389
39.7468
38.9902
38.2317
37.4465
36.6408
35.9349
35.3759
34.6274
33.6714
32.777
31.8804
30.9247
29.8423
28.8839
28.6762
28.1805
26.8651
25.432
24.0258
22.5934
20.7537
18.6202
0
0
0
0
0
0
0
0
0
0
0
0
0
0
0
0
0
0
0
0
0
0
0
0
0
0
0
0
0
0
71.843
71.4399
71.2053
71.0885
71.0596
71.1008
71.2085
71.3793
71.61
71.8983
72.2418
72.6382
73.085
73.5808
74.1222
74.6987
75.3084
75.9526
76.6248
77.3224
78.0343
78.7563
79.4836
80.2113
80.9344
81.6481
82.3479
83.0294
83.6888
84.3225
84.9273
85.5003
86.0392
86.542
87.007
87.4331
87.8195
88.1656
88.4712
88.7366
88.9621
89.1485
89.2966
89.4075
89.4825
89.523
89.5305
89.5067
89.4531
89.3716
89.2638
89.1316
88.9765
88.8004
88.605
88.3918
88.1624
87.9183
87.661
87.3918
87.1119
86.8227
86.5252
86.2205
85.9095
85.5933
85.2725
84.948
84.6204
84.2904
83.9586
83.6254
83.2914
82.9569
82.6223
82.288
81.9541
81.621
81.2889
80.9578
80.6281
80.2998
79.973
79.6477
79.3241
79.0021
78.6819
78.3635
78.0468
77.7319
77.4187
77.1072
76.7974
76.4892
76.1826
75.8775
75.5739
75.2718
74.9711
74.6718
74.3737
74.0769
73.7813
73.4868
73.1934
72.901
72.6096
72.3191
72.0294
71.7406
71.4525
71.1652
70.8786
70.5926
70.3071
70.0223
69.7379
69.4541
69.1706
68.8876
68.605
68.3227
68.0407
67.759
67.4776
67.1964
66.9154
66.6347
66.354
66.0736
65.7933
65.5131
65.233
64.953
64.6731
64.3933
64.1135
63.8338
63.5542
63.2745
62.995
62.7155
62.436
62.1566
61.8773
61.598
61.3188
61.0398
60.7608
60.4821
60.2035
59.9251
59.647
59.3693
59.092
58.8152
58.5389
58.2634
57.9888
57.7152
57.4428
57.1717
56.9023
56.6346
56.3686
56.1042
55.8407
55.5767
55.3099
55.0361
54.7496
54.4436
54.1146
53.7572
53.3682
52.9514
52.5127
52.0568
51.5874
51.1087
50.6242
50.1191
49.5867
49.0381
48.4776
47.908
47.3328
46.7576
46.1922
45.6019
44.9668
44.3155
43.6541
42.9843
42.3117
41.6506
41.0289
40.3587
39.6091
38.8491
38.08
37.2994
36.519
35.7836
35.07
34.2528
33.3789
32.5218
31.6476
30.74
29.8172
29.0596
28.3404
27.389
26.3336
25.2974
24.235
23.0678
21.6253
20.2474
20.7569
20.8371
18.6373
16.6703
15.0327
13.3685
11.2901
9.22129
0
0
0
0
0
0
0
0
0
0
0
0
0
0
0
0
0
0
0
0
0
0
71.7129
71.2864
71.043
70.9236
70.8969
70.9436
71.058
71.2356
71.4724
71.7657
72.1132
72.5123
72.959
73.4489
73.9986
74.5925
75.2022
75.8437
76.5162
77.2126
77.9248
78.6477
79.3761
80.1049
80.8291
81.5437
82.2444
82.9267
83.5869
84.2211
84.8264
85.3998
85.939
86.442
86.9072
87.3334
87.7199
88.0661
88.3718
88.6373
88.863
89.0496
89.198
89.3094
89.3849
89.4261
89.4344
89.4116
89.3591
89.2789
89.1726
89.0419
88.8886
88.7144
88.521
88.3099
88.0828
87.8411
87.5863
87.3196
87.0424
86.7558
86.461
86.159
85.8508
85.5373
85.2193
84.8975
84.5726
84.2453
83.916
83.5854
83.2539
82.9218
82.5896
82.2575
81.9259
81.5949
81.2648
80.9357
80.6078
80.2813
79.9561
79.6324
79.3103
78.9898
78.6709
78.3537
78.0382
77.7244
77.4122
77.1017
76.7927
76.4853
76.1795
75.8751
75.5722
75.2707
74.9705
74.6717
74.3741
74.0777
73.7824
73.4882
73.1951
72.903
72.6118
72.3214
72.032
71.7433
71.4554
71.1681
70.8816
70.5956
70.3102
70.0254
69.7411
69.4572
69.1738
68.8908
68.6081
68.3258
68.0437
67.762
67.4805
67.1993
66.9182
66.6374
66.3567
66.0762
65.7958
65.5155
65.2353
64.9553
64.6753
64.3954
64.1155
63.8357
63.5559
63.2762
62.9966
62.717
62.4374
62.1579
61.8784
61.599
61.3197
61.0405
60.7614
60.4824
60.2036
59.9251
59.6467
59.3687
59.091
58.8138
58.537
58.2609
57.9855
57.7109
57.4372
57.1646
56.893
56.6225
56.3528
56.0835
55.8135
55.5412
55.2642
54.9787
54.6799
54.3629
54.0243
53.66
53.2686
52.8526
52.416
51.9625
51.4948
51.015
50.5241
50.0152
49.4855
48.9404
48.3834
47.8169
47.2434
46.6655
46.0853
45.4853
44.8552
44.2093
43.5532
42.8894
42.2219
41.5574
40.9036
40.2203
39.4831
38.7265
37.9601
37.1859
36.4101
35.6487
34.893
34.0851
33.2296
32.3604
31.4752
30.5752
29.6783
28.8449
27.9759
27.0038
26.0063
25.0042
23.9706
22.8878
21.7734
20.9378
20.3855
19.3897
17.9344
16.6052
15.3367
13.962
12.3574
11.2017
11.3642
10.3718
8.26944
6.21971
4.27204
2.10332
-0.476932
0
0
0
0
0
0
0
0
0
0
0
0
0
0
0
71.4943
71.0546
70.8102
70.6932
70.673
70.7291
70.8543
71.0426
71.2895
71.5922
71.9481
72.355
72.8098
73.3097
73.8614
74.4523
75.0705
75.719
76.3957
77.0949
77.8101
78.5359
79.267
79.9983
80.7247
81.4414
82.1437
82.8275
83.4888
84.124
84.7299
85.3038
85.8432
86.3463
86.8114
87.2375
87.6236
87.9694
88.2748
88.5399
88.7652
88.9515
89.0997
89.2109
89.2864
89.3277
89.3364
89.314
89.2622
89.1828
89.0775
88.948
88.7961
88.6235
88.4319
88.2227
87.9977
87.7582
87.5056
87.2414
86.9667
86.6828
86.3907
86.0914
85.786
85.4753
85.16
84.841
84.519
84.1944
83.8679
83.54
83.2112
82.8817
82.552
82.2224
81.8931
81.5644
81.2365
80.9095
80.5837
80.2591
79.9358
79.6139
79.2934
78.9745
78.6571
78.3413
78.0271
77.7145
77.4036
77.0942
76.7862
76.4798
76.1748
75.8713
75.5691
75.2683
74.9688
74.6705
74.3734
74.0775
73.7827
73.4889
73.1962
72.9043
72.6134
72.3234
72.0341
71.7456
71.4579
71.1708
70.8844
70.5985
70.3132
70.0285
69.7442
69.4603
69.1769
68.8939
68.6112
68.3289
68.0468
67.7651
67.4836
67.2023
66.9212
66.6402
66.3595
66.0789
65.7984
65.5181
65.2378
64.9577
64.6776
64.3976
64.1176
63.8377
63.5578
63.278
62.9983
62.7185
62.4388
62.1592
61.8795
61.6
61.3205
61.0411
60.7618
60.4826
60.2035
59.9246
59.6459
59.3674
59.0892
58.8114
58.5339
58.2569
57.9804
57.7045
57.4292
57.1545
56.8803
56.6065
56.3325
56.0578
55.7811
55.5008
55.2144
54.9186
54.6096
54.2833
53.9369
53.5675
53.1742
52.7583
52.3229
51.8706
51.4036
50.923
50.429
49.9186
49.3906
48.8481
48.2933
47.7283
47.1548
46.5739
45.985
45.3793
44.7519
44.1097
43.4568
42.7957
42.1289
41.4591
40.7867
40.091
39.3596
38.6094
37.8483
37.0788
36.3045
35.5315
34.7545
33.9432
33.0933
32.2241
31.3407
30.447
29.5511
28.6732
27.7783
26.8263
25.8342
24.8189
23.7811
22.7273
21.6876
20.7713
19.8602
18.7508
17.5107
16.2805
15.0415
13.755
12.4605
11.571
10.6135
9.1292
7.59054
6.06108
4.45389
2.49455
0.160534
0
0
0
0
0
0
0
0
0
0
0
0
0
0
0
71.1861
70.7411
70.5026
70.3939
70.3856
70.4569
70.5984
70.8026
71.0648
71.3818
71.751
72.1701
72.6366
73.1484
73.7056
74.301
74.9283
75.5853
76.2686
76.9731
77.6931
78.4233
79.1584
79.8931
80.6225
81.3418
82.0462
82.7317
83.3942
84.0303
84.6367
85.2108
85.7502
86.2529
86.7175
87.1428
87.5281
87.873
88.1773
88.4414
88.6658
88.8511
88.9985
89.109
89.184
89.2249
89.2334
89.211
89.1594
89.0805
88.9759
88.8473
88.6966
88.5254
88.3353
88.1279
87.9048
87.6674
87.4171
87.1553
86.8832
86.6019
86.3126
86.0162
85.7136
85.4058
85.0936
84.7776
84.4585
84.1369
83.8134
83.4884
83.1624
82.8357
82.5088
82.1818
81.8552
81.529
81.2035
80.8789
80.5553
80.2329
79.9116
79.5917
79.2731
78.956
78.6403
78.3261
78.0134
77.7022
77.3926
77.0845
76.7778
76.4724
76.1685
75.8659
75.5646
75.2646
74.9659
74.6683
74.3718
74.0765
73.7822
73.4889
73.1966
72.9052
72.6146
72.3249
72.0359
71.7477
71.4601
71.1733
70.887
70.6013
70.3161
70.0314
69.7472
69.4635
69.1801
68.8971
68.6145
68.3321
68.0501
67.7683
67.4867
67.2054
66.9242
66.6433
66.3625
66.0818
65.8013
65.5208
65.2405
64.9602
64.6801
64.3999
64.1199
63.8399
63.5599
63.2799
63
62.7202
62.4403
62.1605
61.8807
61.6009
61.3212
61.0416
60.762
60.4824
60.203
59.9237
59.6445
59.3655
59.0867
58.8081
58.5297
58.2516
57.9738
57.6962
57.4189
57.1418
56.8646
56.587
56.3085
56.0282
55.7449
55.4569
55.1619
54.8571
54.5392
54.2051
53.8523
53.4787
53.0834
52.6675
52.2328
51.7812
51.3145
50.8335
50.3383
49.8275
49.3007
48.7598
48.2066
47.6426
47.0688
46.4854
45.8916
45.2828
44.6568
44.0168
43.3656
42.7051
42.037
41.362
40.6783
39.9749
39.2463
38.5001
37.7419
36.974
36.1986
35.4177
34.6263
33.8084
32.9614
32.0957
31.2164
30.3264
29.43
28.5338
27.6221
26.6703
25.6815
24.6685
23.6381
22.599
21.5666
20.5768
19.5867
18.4917
17.2916
16.0603
14.8166
13.5596
12.3212
11.2285
9.99076
8.5659
7.11689
5.62733
4.04804
2.18617
0.189916
0
0
0
0
0
0
0
0
0
0
0
0
0
0
0
70.7874
70.3431
70.1166
70.0228
70.0333
70.1271
70.292
70.5188
70.8027
71.1398
71.5273
71.9631
72.445
72.9708
73.5389
74.1442
74.7818
75.4484
76.1398
76.8512
77.5774
78.313
79.0527
79.7914
80.5241
81.246
81.9526
82.6395
83.303
83.9396
84.5461
85.1198
85.6585
86.1603
86.6236
87.0475
87.4312
87.7744
88.077
88.3394
88.5621
88.7459
88.8918
89.001
89.0749
89.1149
89.1228
89.1
89.0483
88.9695
88.8653
88.7375
88.5877
88.4177
88.2291
88.0234
87.8023
87.567
87.3191
87.0598
86.7903
86.5118
86.2254
85.932
85.6326
85.3279
85.0189
84.7061
84.3902
84.0719
83.7516
83.4298
83.1069
82.7833
82.4594
82.1354
81.8116
81.4882
81.1655
80.8435
80.5224
80.2024
79.8835
79.5657
79.2493
78.9341
78.6203
78.3079
77.9969
77.6874
77.3793
77.0726
76.7673
76.4632
76.1604
75.8589
75.5587
75.2596
74.9617
74.6649
74.3693
74.0746
73.7809
73.4882
73.1964
72.9055
72.6154
72.326
72.0374
71.7495
71.4622
71.1755
70.8895
70.604
70.3189
70.0344
69.7503
69.4667
69.1834
68.9004
68.6178
68.3355
68.0534
67.7716
67.4901
67.2087
66.9275
66.6465
66.3656
66.0849
65.8043
65.5238
65.2434
64.963
64.6827
64.4025
64.1223
63.8422
63.5621
63.282
63.0019
62.7219
62.4419
62.1619
61.8819
61.6019
61.3219
61.0419
60.762
60.4821
60.2023
59.9225
59.6427
59.3631
59.0834
58.8039
58.5245
58.2451
57.9657
57.6863
57.4067
57.1268
56.8463
56.5648
56.2815
55.9957
55.706
55.4108
55.108
54.7951
54.4696
54.1287
53.7703
53.393
52.996
52.5796
52.1453
51.6943
51.2279
50.7469
50.2513
49.7407
49.215
48.6754
48.1234
47.56
46.9857
46.4007
45.8042
45.1938
44.5683
43.9295
43.2792
42.6186
41.9488
41.2694
40.5788
39.871
39.1433
38.3991
37.6421
36.874
36.0961
35.3087
34.508
33.6855
32.8397
31.9762
31.0985
30.2092
29.3103
28.403
27.4778
26.5221
25.5371
24.5299
23.5067
22.4746
21.4414
20.4195
19.3869
18.2839
17.0998
15.8797
14.6455
13.4022
12.1628
10.9627
9.69541
8.31651
6.86763
5.36794
3.8128
2.08411
0.262832
0
0
0
0
0
0
0
0
0
0
0
0
0
0
0
70.2963
69.8565
69.6479
69.5769
69.6148
69.7405
69.938
70.1958
70.5088
70.8725
71.284
71.7414
72.2425
72.7855
73.3682
73.9866
74.6363
75.3136
76.0143
76.7338
77.4668
78.2082
78.9528
79.6955
80.4313
81.1556
81.8637
82.5516
83.2155
83.8518
84.4575
85.0301
85.5672
86.0671
86.5283
86.9498
87.3311
87.6717
87.9718
88.2317
88.4519
88.6334
88.7772
88.8846
88.9568
88.9955
89.0022
88.9787
88.9266
88.8477
88.7437
88.6164
88.4676
88.2987
88.1116
87.9077
87.6885
87.4555
87.21
86.9534
86.6868
86.4113
86.1281
85.8379
85.5419
85.2407
84.9351
84.6258
84.3135
83.9987
83.6819
83.3636
83.0442
82.724
82.4034
82.0827
81.7621
81.4418
81.1221
80.803
80.4847
80.1674
79.851
79.5358
79.2217
78.9088
78.5971
78.2867
77.9776
77.6699
77.3635
77.0584
76.7546
76.452
76.1506
75.8503
75.5512
75.2532
74.9564
74.6605
74.3657
74.0718
73.7789
73.4868
73.1957
72.9053
72.6156
72.3267
72.0385
71.751
71.464
71.1777
70.8919
70.6066
70.3218
70.0374
69.7535
69.4699
69.1867
68.9038
68.6213
68.339
68.057
67.7752
67.4936
67.2122
66.931
66.65
66.3691
66.0883
65.8076
65.527
65.2465
64.966
64.6856
64.4053
64.125
63.8447
63.5645
63.2843
63.004
62.7238
62.4436
62.1633
61.8831
61.6028
61.3226
61.0423
60.762
60.4817
60.2013
59.921
59.6406
59.3601
59.0796
58.799
58.5183
58.2375
57.9564
57.6749
57.3929
57.1101
56.8261
56.5405
56.2526
55.9613
55.6655
55.3635
55.0536
54.7337
54.4013
54.0545
53.6913
53.3107
52.9118
52.4949
52.0606
51.6101
51.1441
50.6632
50.1678
49.6577
49.133
48.5947
48.0436
47.4806
46.9061
46.3202
45.7222
45.111
44.4857
43.8476
43.1975
42.5364
41.8648
41.1823
40.4874
39.7768
39.0489
38.3056
37.5488
36.7799
35.9991
35.2067
34.4005
33.5757
32.73
31.8667
30.9888
30.0982
29.1959
28.2805
27.3463
26.3874
25.4039
24.4
23.3802
22.3496
21.3123
20.2707
19.2078
18.0928
16.9207
15.715
14.4911
13.2546
12.0114
10.7699
9.48232
8.11308
6.67674
5.1969
3.68421
2.06868
0.368795
0
0
0
0
0
0
0
0
0
0
0
0
0
0
0
69.7078
69.274
69.0908
69.0528
69.1277
69.2983
69.5415
69.8399
70.1901
70.5874
71.0289
71.5126
72.037
72.6004
73.2005
73.8342
74.4974
75.1864
75.8972
76.625
77.3651
78.1122
78.8614
79.6077
80.346
81.0719
81.7808
82.4687
83.1319
83.7669
84.3708
84.941
85.4754
85.9723
86.4303
86.8484
87.2261
87.5632
87.8598
88.1163
88.3334
88.5118
88.6528
88.7577
88.8278
88.8646
88.8699
88.8453
88.7925
88.7133
88.6094
88.4826
88.3346
88.1669
87.9813
87.7792
87.5622
87.3316
87.0888
86.8351
86.5716
86.2995
86.0196
85.7331
85.4407
85.1433
84.8416
84.5362
84.2277
83.9168
83.6039
83.2895
82.9739
82.6575
82.3406
82.0234
81.7064
81.3895
81.0731
80.7572
80.442
80.1276
79.8142
79.5017
79.1902
78.8798
78.5705
78.2624
77.9554
77.6497
77.3452
77.0419
76.7398
76.4388
76.1389
75.8401
75.5423
75.2455
74.9498
74.655
74.3611
74.0682
73.7761
73.4848
73.1943
72.9045
72.6155
72.3271
72.0394
71.7523
71.4657
71.1797
70.8942
70.6092
70.3246
70.0404
69.7567
69.4733
69.1902
68.9074
68.625
68.3427
68.0608
67.779
67.4974
67.216
66.9348
66.6537
66.3727
66.0919
65.8111
65.5304
65.2498
64.9693
64.6888
64.4083
64.1279
63.8475
63.5671
63.2867
63.0063
62.7259
62.4454
62.165
61.8844
61.6039
61.3233
61.0426
60.7619
60.4811
60.2002
59.9192
59.6381
59.3568
59.0753
58.7936
58.5116
58.2291
57.9462
57.6625
57.3779
57.0921
56.8046
56.515
56.2224
55.9258
55.6242
55.3161
54.9998
54.6734
54.3351
53.983
53.6156
53.2319
52.8312
52.4134
51.9791
51.5289
51.0633
50.5828
50.0878
49.5784
49.0548
48.5175
47.9674
47.4049
46.8304
46.244
45.6452
45.0335
44.4085
43.7706
43.1206
42.4589
41.7858
41.101
40.4032
39.6908
38.9624
38.2192
37.4623
36.6924
35.9096
35.1136
34.3037
33.4769
32.6309
31.7675
30.8887
29.996
29.0901
28.1683
27.2275
26.267
25.2854
24.2827
23.2625
22.2301
21.1863
20.1301
19.0494
17.9275
16.7625
15.5658
14.3477
13.1132
11.8655
10.6035
9.30139
7.93877
6.52324
5.07258
3.6002
2.06982
0.475485
0
0
0
0
0
0
0
0
0
0
0
0
0
0
0
69.0137
68.586
68.4403
68.4465
68.5682
68.8027
69.1083
69.4579
69.8546
70.2931
70.7705
71.2854
71.8367
72.4232
73.0431
73.6934
74.371
75.0723
75.7932
76.5294
77.2761
78.0285
78.7815
79.5303
80.2702
80.9965
81.705
82.3916
83.0527
83.685
84.2857
84.8522
85.3826
85.8751
86.3285
86.742
87.1151
87.4476
87.7397
87.9918
88.2048
88.3794
88.517
88.6187
88.6861
88.7207
88.7241
88.6982
88.6445
88.5648
88.461
88.3346
88.1874
88.021
87.837
87.637
87.4223
87.1945
86.9547
86.7042
86.4441
86.1756
85.8996
85.617
85.3287
85.0354
84.7379
84.4368
84.1326
83.826
83.5174
83.2072
82.8957
82.5835
82.2706
81.9575
81.6443
81.3312
81.0184
80.7061
80.3943
80.0832
79.7729
79.4634
79.1548
78.8472
78.5405
78.2349
77.9303
77.6268
77.3244
77.0231
76.7229
76.4237
76.1255
75.8282
75.5319
75.2365
74.942
74.6484
74.3556
74.0637
73.7725
73.4821
73.1924
72.9033
72.615
72.3272
72.04
71.7534
71.4672
71.1816
70.8965
70.6118
70.3275
70.0435
69.76
69.4768
69.1939
68.9112
68.6288
68.3467
68.0648
67.783
67.5015
67.2201
66.9388
66.6577
66.3767
66.0958
65.815
65.5342
65.2535
64.9729
64.6922
64.4117
64.1311
63.8505
63.57
63.2894
63.0088
62.7281
62.4475
62.1667
61.8859
61.6051
61.3241
61.043
60.7618
60.4805
60.1991
59.9174
59.6355
59.3533
59.0708
58.7878
58.5043
58.2202
57.9353
57.6494
57.3622
57.0734
56.7824
56.4888
56.1917
55.8902
55.5832
55.2694
54.9473
54.6152
54.2716
53.9148
53.5436
53.157
52.7545
52.3359
51.9013
51.4512
50.986
50.506
50.0116
49.5029
48.9803
48.444
47.8948
47.3329
46.7587
46.1721
45.5731
44.9612
44.3363
43.6986
43.0486
42.3864
41.7122
41.0256
40.3259
39.612
38.8831
38.1396
37.3823
36.6114
35.827
35.0287
34.2162
33.3873
32.5405
31.6765
30.7965
29.9022
28.9937
28.0684
27.1242
26.1619
25.1804
24.178
23.1573
22.1216
21.0713
20.0043
18.9128
17.7871
16.6259
15.4357
14.2219
12.9882
11.7376
10.4654
9.15757
7.80348
6.40888
4.98568
3.5469
2.08073
0.576712
0
0
0
0
0
0
0
0
0
0
0
0
0
0
0
68.1977
67.7798
67.6894
67.7522
67.946
68.2629
68.6378
69.0564
69.5112
69.9989
70.5181
71.0684
71.6498
72.2617
72.9027
73.5707
74.2629
74.9763
75.707
76.4508
77.2033
77.9598
78.7154
79.4655
80.2054
80.9306
81.6371
82.3208
82.9782
83.6062
84.202
84.7633
85.288
85.7747
86.2222
86.6297
86.9968
87.3235
87.61
87.8568
88.0648
88.2349
88.3682
88.4663
88.5305
88.5624
88.5638
88.5362
88.4814
88.4012
88.2973
88.1714
88.0252
87.8602
87.6781