/*--------------------------------*- C++ -*----------------------------------*\
| =========                 |                                                 |
| \\      /  F ield         | OpenFOAM: The Open Source CFD Toolbox           |
|  \\    /   O peration     | Version:  2206                                  |
|   \\  /    A nd           | Website:  www.openfoam.com                      |
|    \\/     M anipulation  |                                                 |
\*---------------------------------------------------------------------------*/
FoamFile
{
    version     2.0;
    format      ascii;
    arch        "LSB;label=32;scalar=64";
    class       surfaceScalarField;
    location    "0.09";
    object      phi;
}
// * * * * * * * * * * * * * * * * * * * * * * * * * * * * * * * * * * * * * //

dimensions      [0 3 -1 0 0 0 0];

oriented        oriented;

internalField   nonuniform List<scalar> 
29690
(
5.02492e-21
-1.93348e-35
8.39741e-169
6.40428e-179
8.39741e-169
-2.81197e-178
8.39741e-169
0
8.39741e-169
0
8.39741e-169
0
8.39741e-169
0
8.39741e-169
0
8.39741e-169
-5.62394e-178
8.39741e-169
5.62394e-178
8.39741e-169
0
8.39741e-169
0
8.39741e-169
-5.62394e-178
8.39741e-169
5.62394e-178
8.39741e-169
-2.81197e-178
8.39741e-169
2.81197e-178
8.39741e-169
0
8.39741e-169
0
8.39741e-169
0
8.39741e-169
0
8.39741e-169
0
8.39741e-169
0
8.39741e-169
-5.62394e-178
8.39741e-169
8.43591e-178
8.39741e-169
-2.81197e-178
8.39741e-169
0
8.39741e-169
0
8.39741e-169
0
8.39741e-169
-5.62394e-178
8.39741e-169
5.62394e-178
8.39741e-169
0
8.39741e-169
0
8.39741e-169
0
8.39741e-169
0
8.39741e-169
0
8.39741e-169
0
8.39741e-169
-2.81197e-178
8.39741e-169
5.62394e-178
8.39741e-169
-2.81197e-178
8.39741e-169
0
8.39741e-169
-5.62394e-178
8.39741e-169
5.62394e-178
8.39741e-169
0
8.39741e-169
2.81197e-178
8.39741e-169
-2.81197e-178
8.39741e-169
2.81197e-178
8.39741e-169
-2.81197e-178
8.39741e-169
0
8.39741e-169
0
8.39741e-169
5.62394e-178
8.39741e-169
-5.62394e-178
8.39741e-169
0
8.39741e-169
-2.81197e-178
8.39741e-169
8.43591e-178
8.39741e-169
-5.62394e-178
8.39741e-169
2.81197e-178
8.39741e-169
-2.81197e-178
8.39741e-169
0
8.39741e-169
5.62394e-178
8.39741e-169
-5.62394e-178
8.39741e-169
0
8.39741e-169
2.81197e-178
8.39741e-169
-2.81197e-178
8.39741e-169
0
8.39741e-169
0
8.39741e-169
1.12479e-177
8.39741e-169
-1.12479e-177
8.39741e-169
5.62394e-178
8.39741e-169
-5.62394e-178
8.39741e-169
0
8.39741e-169
0
8.39741e-169
0
8.39741e-169
2.81197e-178
8.39741e-169
2.81197e-178
8.39741e-169
-5.62394e-178
8.39741e-169
0
8.39741e-169
0
8.39741e-169
0
8.39741e-169
-2.81197e-178
8.39741e-169
1.12479e-177
8.39741e-169
-8.43591e-178
8.39741e-169
5.62394e-178
8.39741e-169
-5.62394e-178
8.39741e-169
0
8.39741e-169
2.81197e-178
8.39741e-169
-2.81197e-178
8.39741e-169
-2.81197e-178
8.39741e-169
2.81197e-178
8.39741e-169
0
8.39741e-169
0
8.39741e-169
0
8.39741e-169
0
8.39741e-169
0
8.39741e-169
5.62394e-178
8.39741e-169
-5.62394e-178
8.39741e-169
5.62394e-178
8.39741e-169
-2.81197e-178
8.39741e-169
2.81197e-178
8.39741e-169
-5.62394e-178
8.39741e-169
0
8.39741e-169
-2.81197e-178
8.39741e-169
2.81197e-178
8.39741e-169
0
8.39741e-169
0
8.39741e-169
2.81197e-178
8.39741e-169
2.81197e-178
8.39741e-169
-2.81197e-178
8.39741e-169
2.81197e-178
8.39741e-169
-5.62394e-178
8.39741e-169
5.62394e-178
8.39741e-169
-5.62394e-178
8.39741e-169
1.12479e-177
8.39741e-169
-8.43591e-178
8.39741e-169
-2.81197e-178
8.39741e-169
0
8.39741e-169
0
8.39741e-169
2.81197e-178
8.39741e-169
-2.81197e-178
8.39741e-169
0
8.39741e-169
0
8.39741e-169
0
8.39741e-169
5.62394e-178
8.39741e-169
-5.62394e-178
8.39741e-169
0
8.39741e-169
0
8.39741e-169
2.81197e-178
8.39741e-169
-2.81197e-178
8.39741e-169
5.62394e-178
8.39741e-169
-5.62394e-178
8.39741e-169
0
8.39741e-169
0
8.39741e-169
0
8.39741e-169
0
8.39741e-169
0
8.39741e-169
0
8.39741e-169
0
8.39741e-169
0
8.39741e-169
0
8.39741e-169
0
8.39741e-169
5.62394e-178
8.39741e-169
-5.62394e-178
8.39741e-169
0
8.39741e-169
2.81197e-178
8.39741e-169
-2.81197e-178
8.39741e-169
0
8.39741e-169
-2.81197e-178
8.39741e-169
2.81197e-178
8.39741e-169
0
8.39741e-169
0
8.39741e-169
0
8.39741e-169
2.81197e-178
8.39741e-169
-2.81197e-178
8.39741e-169
2.81197e-178
8.39741e-169
-2.81197e-178
8.39741e-169
0
8.39741e-169
0
8.39741e-169
0
8.39741e-169
0
8.39741e-169
0
8.39741e-169
0
8.39741e-169
0
8.39741e-169
0
8.39741e-169
0
8.39741e-169
0
8.39741e-169
0
8.39741e-169
0
8.39741e-169
0
8.39741e-169
0
8.39741e-169
0
8.39741e-169
0
8.39741e-169
0
8.39741e-169
0
8.39741e-169
5.62394e-178
8.39741e-169
-5.62394e-178
8.39741e-169
0
8.39741e-169
0
8.39741e-169
5.62394e-178
8.39741e-169
-5.62394e-178
8.39741e-169
0
8.39741e-169
0
8.39741e-169
0
8.39741e-169
0
8.39741e-169
0
8.39741e-169
5.62394e-178
8.39741e-169
-2.81197e-178
8.39741e-169
-2.81197e-178
8.39741e-169
2.81197e-178
8.39741e-169
-2.81197e-178
8.39741e-169
0
8.39741e-169
0
8.39741e-169
5.62394e-178
8.39741e-169
-5.62394e-178
8.39741e-169
0
8.39741e-169
0
8.39741e-169
0
8.39741e-169
0
8.39741e-169
2.81197e-178
8.39741e-169
-2.81197e-178
8.39741e-169
0
8.39741e-169
0
8.39741e-169
2.81197e-178
8.39741e-169
-2.81197e-178
8.39741e-169
0
8.39741e-169
0
8.39741e-169
0
8.39741e-169
0
8.39741e-169
0
8.39741e-169
0
8.39741e-169
0
8.39741e-169
-2.81197e-178
8.39741e-169
2.81197e-178
8.39741e-169
2.81197e-178
8.39741e-169
-2.81197e-178
8.39741e-169
0
8.39741e-169
0
8.39741e-169
0
8.39741e-169
0
8.39741e-169
0
8.39741e-169
0
8.39741e-169
0
8.39741e-169
0
8.39741e-169
0
8.39741e-169
0
8.39741e-169
0
8.39741e-169
0
8.39741e-169
2.81197e-178
8.39741e-169
-2.81197e-178
8.39741e-169
0
8.39741e-169
2.81197e-178
8.39741e-169
-2.81197e-178
8.39741e-169
0
8.39741e-169
0
8.39741e-169
0
8.39741e-169
0
8.39741e-169
-2.81197e-178
8.39741e-169
2.81197e-178
8.39741e-169
0
8.39741e-169
0
8.39741e-169
0
8.39741e-169
0
8.39741e-169
0
8.39741e-169
0
8.39741e-169
0
8.39741e-169
0
8.39741e-169
0
8.39741e-169
0
8.39742e-169
0
8.39582e-169
0
1.88692e-165
0
0
6.14813e-21
0
1.06797e-159
0
7.32895e-159
0
7.32895e-159
1.27137e-173
7.32895e-159
-1.27137e-173
7.32895e-159
0
7.32895e-159
-2.54274e-173
7.32895e-159
2.54274e-173
7.32895e-159
2.54274e-173
7.32895e-159
-2.54274e-173
7.32895e-159
0
7.32895e-159
0
7.32895e-159
0
7.32895e-159
0
7.32895e-159
2.54275e-173
7.32895e-159
-3.37669e-71
7.32895e-159
0
7.32895e-159
0
7.32895e-159
0
7.32895e-159
-1.27118e-173
7.32895e-159
2.75575e-52
7.32895e-159
8.10522e-52
7.32895e-159
3.83717e-52
7.32895e-159
-2.30769e-68
7.32895e-159
0
7.32895e-159
0
7.32895e-159
2.28712e-67
7.32895e-159
1.56157e-53
7.32895e-159
-7.06595e-53
7.32895e-159
4.72359e-53
7.32895e-159
0
7.32895e-159
0
7.32895e-159
1.97829e-52
7.32895e-159
2.2476e-52
7.32895e-159
9.17514e-53
7.32895e-159
-5.00464e-53
7.32895e-159
-3.40443e-53
7.32895e-159
6.80893e-53
7.32895e-159
-1.83827e-67
7.32895e-159
-6.62888e-68
7.32895e-159
6.05623e-67
7.32895e-159
-1.51947e-66
7.32895e-159
1.22206e-66
7.32895e-159
2.54274e-173
7.32895e-159
0
7.32895e-159
1.05617e-66
7.32895e-159
3.81411e-173
7.32895e-159
2.11573e-67
7.32895e-159
1.12542e-52
7.32895e-159
-2.2567e-52
7.32895e-159
-3.93405e-53
7.32895e-159
-1.15257e-52
7.32895e-159
1.52704e-52
7.32895e-159
-7.61132e-53
7.32895e-159
-7.62823e-173
7.32895e-159
0
7.32895e-159
-2.54274e-173
7.32895e-159
-2.22055e-53
7.32895e-159
-4.62562e-68
7.32895e-159
-7.24225e-54
7.32895e-159
1.27137e-173
7.32895e-159
0
7.32895e-159
0
7.32895e-159
0
7.32895e-159
0
7.32895e-159
0
7.32895e-159
0
7.32895e-159
0
7.32895e-159
0
7.32895e-159
0
7.32895e-159
2.27951e-52
7.32895e-159
0
7.32895e-159
3.4531e-66
7.32895e-159
-1.27137e-173
7.32895e-159
1.27137e-173
7.32895e-159
2.55515e-52
7.32895e-159
1.69726e-52
7.32895e-159
5.17025e-67
7.32895e-159
-3.36898e-52
7.32895e-159
2.23726e-52
7.32895e-159
2.22841e-52
7.32895e-159
-2.80611e-67
7.32895e-159
1.45165e-52
7.32895e-159
0
7.32895e-159
3.17721e-52
7.32895e-159
-6.83948e-53
7.32895e-159
4.33169e-53
7.32895e-159
-1.08246e-52
7.32895e-159
3.90884e-52
7.32895e-159
-2.63638e-52
7.32895e-159
2.10525e-52
7.32895e-159
-7.0175e-53
7.32895e-159
2.1594e-67
7.32895e-159
-2.54274e-173
7.32895e-159
0
7.32895e-159
-2.54274e-173
7.32895e-159
2.54274e-173
7.32895e-159
9.33069e-66
7.32895e-159
9.33069e-66
7.32895e-159
8.80881e-67
7.32895e-159
0
7.32895e-159
0
7.32895e-159
-1.99362e-52
7.32895e-159
-1.76715e-66
7.32895e-159
8.36327e-52
7.32895e-159
1.31827e-52
7.32895e-159
-2.54273e-173
7.32895e-159
-3.39366e-53
7.32895e-159
-2.47933e-68
7.32895e-159
-2.49687e-67
7.32895e-159
2.00401e-67
7.32895e-159
0
7.32895e-159
3.84419e-52
7.32895e-159
-3.84419e-52
7.32895e-159
2.54273e-173
7.32895e-159
-2.54273e-173
7.32895e-159
-5.77957e-66
7.32895e-159
2.51186e-52
7.32895e-159
-6.06573e-53
7.32895e-159
1.27136e-173
7.32895e-159
0
7.32895e-159
0
7.32895e-159
0
7.32895e-159
4.19786e-66
7.32895e-159
0
7.32895e-159
0
7.32895e-159
-1.38382e-52
7.32895e-159
0
7.32895e-159
0
7.32895e-159
0
7.32895e-159
0
7.32895e-159
0
7.32895e-159
2.7012e-52
7.32895e-159
-8.96735e-53
7.32895e-159
-8.93074e-53
7.32895e-159
-2.22347e-68
7.32895e-159
-2.21435e-68
7.32895e-159
-8.8212e-53
7.32895e-159
-8.78477e-53
7.32895e-159
0
7.32895e-159
0
7.32895e-159
1.27137e-173
7.32895e-159
-1.27137e-173
7.32895e-159
2.54274e-173
7.32895e-159
-2.54274e-173
7.32895e-159
1.27506e-65
7.32895e-159
-2.90827e-66
7.32895e-159
2.89586e-66
7.32895e-159
0
7.32895e-159
3.61011e-67
7.32895e-159
2.54274e-173
7.32895e-159
-8.11097e-66
7.32895e-159
0
7.32895e-159
2.54274e-173
7.32895e-159
-2.54274e-173
7.32895e-159
0
7.32895e-159
2.54274e-173
7.32895e-159
0
7.32895e-159
-2.54274e-173
7.32895e-159
0
7.32895e-159
0
7.32895e-159
-6.69759e-66
7.32895e-159
6.23439e-52
7.32895e-159
-2.07813e-52
7.32895e-159
-1.02955e-52
7.32895e-159
-2.54274e-173
7.32895e-159
0
7.32895e-159
0
7.32895e-159
6.936e-66
7.32895e-159
1.62485e-68
7.32895e-159
-2.85079e-66
7.32895e-159
-2.54273e-173
7.32895e-159
0
7.32895e-159
2.97475e-52
7.32895e-159
0
7.32895e-159
-3.18388e-52
7.32895e-159
-7.41129e-53
7.32895e-159
0
7.32895e-159
2.54272e-173
7.32895e-159
-1.82583e-68
7.32895e-159
0
7.32895e-159
0
7.32895e-159
-1.7986e-68
7.32895e-159
0
7.32895e-159
0
7.32895e-159
0
7.32895e-159
0
7.32895e-159
0
7.32895e-159
0
7.32895e-159
0
7.32895e-159
0
7.32895e-159
0
7.32895e-159
0
7.32895e-159
0
7.32895e-159
0
7.32895e-159
0
7.32895e-159
0
7.32895e-159
0
7.32895e-159
0
7.32895e-159
0
7.32895e-159
0
7.32895e-159
0
7.32895e-159
2.54274e-173
7.32895e-159
-2.54274e-173
7.32895e-159
0
7.32895e-159
0
7.32895e-159
0
7.32895e-159
0
7.32895e-159
0
7.32895e-159
2.54274e-173
7.32895e-159
-2.54274e-173
7.32895e-159
1.27137e-173
7.32895e-159
-1.27137e-173
7.32895e-159
0
7.32895e-159
0
7.32895e-159
0
7.32895e-159
1.27137e-173
7.32895e-159
-1.27137e-173
7.32895e-159
0
7.32895e-159
0
7.32895e-159
0
7.32895e-159
0
7.32895e-159
-2.54274e-173
7.32895e-159
2.54274e-173
7.32895e-159
0
7.32895e-159
0
7.32895e-159
0
7.32895e-159
0
7.32895e-159
0
7.32895e-159
0
7.32895e-159
0
7.32895e-159
0
7.32895e-159
0
7.32895e-159
0
7.32895e-159
0
7.32895e-159
0
7.32895e-159
0
7.32895e-159
0
7.32895e-159
0
7.32895e-159
0
7.32895e-159
0
7.32895e-159
0
7.32895e-159
0
7.32895e-159
0
7.32895e-159
0
7.32895e-159
0
7.32896e-159
0
7.3258e-159
0
2.27164e-154
0
0
6.14813e-21
0
1.06797e-159
2.58831e-175
7.32895e-159
-1.27137e-173
7.32895e-159
0
7.32895e-159
0
7.32895e-159
2.54274e-173
7.32895e-159
-2.54274e-173
7.32895e-159
0
7.32895e-159
0
7.32895e-159
0
7.32895e-159
2.54274e-173
7.32895e-159
-2.54274e-173
7.32895e-159
0
7.32896e-159
0
-1.03314e-85
2.25802e-87
-7.92289e-86
-4.65929e-26
7.32852e-159
-6.42535e-26
7.3277e-159
9.34882e-26
7.32699e-159
1.9703e-25
-1.93978e-66
2.72842e-25
7.3669e-67
3.12909e-25
-1.86746e-66
3.28068e-25
-2.4039e-67
3.25724e-25
-3.29211e-83
3.11568e-25
7.32683e-159
2.89576e-25
6.52553e-82
2.62483e-25
-6.6831e-68
2.32186e-25
-3.92623e-68
2.00119e-25
-3.34158e-68
1.67764e-25
7.32805e-159
1.365e-25
7.32829e-159
1.0553e-25
-5.64439e-67
7.32728e-26
1.04233e-66
3.70827e-26
2.04988e-66
-5.99082e-27
-1.94145e-67
-2.78166e-26
2.53585e-69
-5.56956e-26
-1.40578e-68
-8.29481e-26
-6.26265e-68
-1.096e-25
-7.65743e-83
-1.34899e-25
-7.11428e-83
-1.58639e-25
8.55142e-81
-1.80692e-25
7.97897e-81
-2.00989e-25
7.32895e-159
-2.19487e-25
7.32895e-159
-2.36213e-25
7.32895e-159
-2.51279e-25
3.01341e-81
-2.64999e-25
7.32895e-159
-2.78148e-25
7.92192e-67
-2.92843e-25
2.17397e-66
-2.98277e-25
-3.60928e-67
-7.06788e-25
-1.78126e-67
-3.08132e-25
-6.28729e-67
-2.87215e-25
-3.58296e-67
-2.76007e-25
-8.68653e-67
-2.78273e-25
7.32895e-159
-3.61654e-25
7.32895e-159
-4.54465e-25
1.26712e-67
-5.41104e-25
6.33559e-68
-6.21451e-25
5.83195e-68
-6.97e-25
9.96462e-68
-7.67576e-25
7.32895e-159
-7.74956e-25
7.32895e-159
-6.89087e-25
7.32895e-159
-5.7294e-25
7.32895e-159
-4.629e-25
7.32895e-159
-3.58541e-25
7.32895e-159
-2.59492e-25
7.32895e-159
-1.79523e-25
7.32895e-159
-1.67708e-25
7.32895e-159
-1.57867e-25
1.30076e-66
-1.48073e-25
7.32895e-159
-1.38427e-25
8.10219e-81
-1.2899e-25
-3.13069e-80
-1.19812e-25
7.32894e-159
-1.10931e-25
2.91611e-66
-1.02375e-25
4.85313e-66
-9.41632e-26
-9.68512e-67
-8.6311e-26
7.32894e-159
-7.88286e-26
-2.01339e-66
-7.1722e-26
-1.1793e-66
-6.49937e-26
-4.57505e-67
-5.86431e-26
-3.31343e-66
-5.26667e-26
-1.65671e-66
-4.70587e-26
1.73847e-66
-4.18114e-26
5.23527e-66
-3.69153e-26
-6.44397e-68
-3.23596e-26
4.00995e-67
-2.81324e-26
-4.14281e-66
-2.4221e-26
2.71339e-66
-2.06119e-26
1.21231e-66
-1.72914e-26
1.60177e-66
-1.42454e-26
8.00883e-67
-1.14598e-26
-2.46445e-81
-8.92104e-27
7.32892e-159
-6.61621e-27
7.32892e-159
-4.53133e-27
7.32892e-159
-2.68143e-27
2.18931e-80
-1.10217e-27
4.47845e-79
6.83832e-29
1.16541e-79
1.57587e-27
3.01596e-80
2.93352e-27
7.32889e-159
4.12038e-27
-1.13763e-66
5.06472e-27
3.47352e-67
5.88e-27
1.94368e-65
6.57544e-27
-2.17891e-65
7.16582e-27
-1.19519e-66
7.66036e-27
-3.87306e-67
8.06818e-27
5.81739e-83
8.39761e-27
2.60487e-81
8.65619e-27
-1.05607e-81
8.85154e-27
-2.75732e-81
8.98905e-27
-1.49657e-65
9.07437e-27
-1.80396e-66
9.11286e-27
8.77449e-66
9.10944e-27
7.32887e-159
9.06867e-27
-1.06643e-79
8.99451e-27
-1.17874e-66
8.89088e-27
-8.64696e-66
8.76183e-27
-1.2422e-66
8.61081e-27
7.32888e-159
8.44072e-27
7.32888e-159
8.25433e-27
7.32888e-159
8.05419e-27
7.32889e-159
7.84259e-27
4.79087e-80
7.62162e-27
7.32889e-159
7.39314e-27
3.15861e-66
7.15885e-27
1.5793e-66
6.92028e-27
7.3289e-159
6.6788e-27
7.3289e-159
6.43567e-27
7.3289e-159
6.19199e-27
7.3289e-159
5.94877e-27
6.16558e-66
5.70691e-27
4.32916e-66
5.467e-27
-4.08443e-66
5.22955e-27
-2.24802e-66
4.99572e-27
-1.01273e-81
4.76611e-27
2.06976e-67
4.54124e-27
-3.81164e-66
4.32159e-27
7.32892e-159
4.10761e-27
7.32892e-159
3.89968e-27
7.32892e-159
3.69815e-27
7.32892e-159
3.50334e-27
7.32892e-159
3.31555e-27
7.32892e-159
3.13504e-27
7.32892e-159
2.96208e-27
7.32893e-159
2.79691e-27
2.83172e-82
2.63981e-27
7.32893e-159
2.49103e-27
8.24019e-81
2.35088e-27
-8.24019e-81
2.21968e-27
7.32893e-159
2.09782e-27
1.85135e-79
1.98575e-27
7.32893e-159
1.884e-27
7.32893e-159
1.7932e-27
7.32893e-159
1.7141e-27
7.32893e-159
1.64758e-27
7.32893e-159
1.59471e-27
7.32893e-159
1.55671e-27
7.32893e-159
1.53494e-27
7.32893e-159
1.53108e-27
3.05749e-79
1.54736e-27
1.46281e-66
1.58691e-27
-7.53638e-66
1.65307e-27
-6.60577e-66
1.74938e-27
2.34997e-66
1.88036e-27
7.32893e-159
2.05157e-27
7.32893e-159
2.26972e-27
-1.58316e-79
2.54299e-27
-7.93436e-80
2.88144e-27
-2.56607e-80
3.29753e-27
6.68895e-81
3.80702e-27
7.3289e-159
4.43033e-27
-7.48794e-66
5.19489e-27
-7.48794e-66
6.13939e-27
-3.63365e-66
7.32164e-27
-1.73895e-67
8.83403e-27
-1.73895e-67
1.08348e-26
7.32881e-159
1.36131e-26
-4.16752e-82
1.77197e-26
1.25026e-81
2.4237e-26
7.32854e-159
3.54716e-26
-3.68334e-82
5.70429e-26
4.22015e-83
1.02126e-25
7.32444e-159
2.16989e-25
7.31313e-159
6.49673e-25
7.30668e-159
2.76e-24
7.30031e-159
1.93459e-24
7.31013e-159
3.73234e-24
7.32895e-159
3.0608e-53
7.32895e-159
-1.63649e-53
7.32895e-159
4.37813e-52
7.32895e-159
-3.7947e-173
7.32895e-159
-7.31861e-53
7.32895e-159
-9.30583e-54
7.32895e-159
-1.16711e-52
7.32895e-159
6.40559e-53
7.32895e-159
0
7.32895e-159
0
7.32895e-159
0
7.32895e-159
0
7.32895e-159
1.27137e-173
7.32895e-159
-1.27137e-173
7.32895e-159
0
7.32895e-159
0
7.32895e-159
0
7.32895e-159
0
7.32895e-159
5.08549e-173
7.32895e-159
-5.08549e-173
7.32895e-159
0
7.32895e-159
0
7.32895e-159
0
7.32895e-159
1.27137e-173
7.32895e-159
-1.27137e-173
7.32895e-159
7.62823e-173
7.32895e-159
-7.62823e-173
7.32895e-159
0
7.32895e-159
0
7.32895e-159
0
7.32895e-159
0
7.32895e-159
0
7.32895e-159
2.54274e-173
7.32895e-159
-2.54274e-173
7.32895e-159
0
7.32895e-159
1.27137e-173
7.32895e-159
-1.27137e-173
7.32895e-159
0
7.32895e-159
0
7.32895e-159
2.54274e-173
7.32895e-159
-2.54274e-173
7.32895e-159
0
7.32895e-159
0
7.32895e-159
0
7.32895e-159
1.27137e-173
7.32895e-159
1.27137e-173
7.32895e-159
-1.27137e-173
7.32895e-159
-1.27137e-173
7.32895e-159
0
7.32895e-159
0
7.32895e-159
0
7.32895e-159
0
7.32895e-159
0
7.32895e-159
1.27137e-173
7.32895e-159
-1.27137e-173
7.32895e-159
0
7.32895e-159
0
7.32895e-159
0
7.32896e-159
0
7.3258e-159
0
2.27164e-154
0
0
6.14813e-21
8.51079e-35
1.06797e-159
0
7.32895e-159
-2.54274e-173
7.32895e-159
2.54274e-173
7.32895e-159
-2.54274e-173
7.32895e-159
2.54274e-173
7.32895e-159
-3.81411e-173
7.32895e-159
3.81411e-173
7.32895e-159
-5.08549e-173
7.32895e-159
0
7.32895e-159
0
7.32895e-159
0
7.32895e-159
0
-3.99633e-71
0
1.81368e-26
-6.97444e-27
1.38367e-25
-2.09923e-21
1.20244e-25
-2.48312e-21
-7.92348e-25
-2.48436e-21
-2.78928e-24
-2.47677e-21
-5.42618e-24
-2.47189e-21
-8.40469e-24
-2.47033e-21
-1.15207e-23
-2.47227e-21
-1.46196e-23
-2.47761e-21
-1.759e-23
-2.48611e-21
-2.0354e-23
-2.49751e-21
-2.28578e-23
-2.51151e-21
-2.50661e-23
-2.52785e-21
-2.69582e-23
-2.54626e-21
-2.85278e-23
-2.56647e-21
-2.97784e-23
-2.58825e-21
-3.07114e-23
-2.61143e-21
-3.13146e-23
-2.63589e-21
-3.15794e-23
-2.6615e-21
-3.14993e-23
-2.68791e-21
-3.11035e-23
-2.71469e-21
-3.04291e-23
-2.74182e-21
-2.9479e-23
-2.76914e-21
-2.82633e-23
-2.79646e-21
-2.67975e-23
-2.8236e-21
-2.50982e-23
-2.85037e-21
-2.31836e-23
-2.87662e-21
-2.10723e-23
-2.90218e-21
-1.87841e-23
-2.92691e-21
-1.63385e-23
-2.95069e-21
-1.37554e-23
-2.97339e-21
-1.1054e-23
-2.99491e-21
-8.25202e-24
-3.01517e-21
-5.35981e-24
-3.03407e-21
-2.47017e-24
-3.0514e-21
4.67323e-25
-3.06734e-21
3.50615e-24
-3.0822e-21
6.53625e-24
-3.09514e-21
9.53958e-24
-3.10643e-21
1.256e-23
-3.11634e-21
1.55809e-23
-3.12483e-21
1.85306e-23
-3.13193e-21
2.13878e-23
-3.13761e-21
2.41436e-23
-3.1419e-21
2.67937e-23
-3.14484e-21
2.93368e-23
-3.14646e-21
3.17845e-23
-3.14675e-21
3.4157e-23
-3.14576e-21
3.64624e-23
-3.14359e-21
3.86993e-23
-3.14038e-21
4.08642e-23
-3.1362e-21
4.29442e-23
-3.13113e-21
4.48908e-23
-3.12529e-21
4.66995e-23
-3.11873e-21
4.84043e-23
-3.11149e-21
5.00063e-23
-3.10361e-21
5.15071e-23
-3.09514e-21
5.29086e-23
-3.08613e-21
5.42136e-23
-3.07665e-21
5.5425e-23
-3.06675e-21
5.65458e-23
-3.05647e-21
5.75796e-23
-3.04586e-21
5.853e-23
-3.03497e-21
5.94007e-23
-3.02383e-21
6.01954e-23
-3.01249e-21
6.0918e-23
-3.00097e-21
6.15724e-23
-2.98931e-21
6.21623e-23
-2.97754e-21
6.26917e-23
-2.96568e-21
6.31642e-23
-2.95376e-21
6.35834e-23
-2.9418e-21
6.39528e-23
-2.92982e-21
6.42761e-23
-2.91783e-21
6.45563e-23
-2.90585e-21
6.47967e-23
-2.89389e-21
6.50004e-23
-2.88197e-21
6.51703e-23
-2.87009e-21
6.53091e-23
-2.85826e-21
6.54195e-23
-2.8465e-21
6.55039e-23
-2.8348e-21
6.55647e-23
-2.82316e-21
6.56041e-23
-2.8116e-21
6.56243e-23
-2.80012e-21
6.56269e-23
-2.78872e-21
6.56135e-23
-2.7774e-21
6.55865e-23
-2.76615e-21
6.55473e-23
-2.75498e-21
6.54973e-23
-2.7439e-21
6.54377e-23
-2.7329e-21
6.53698e-23
-2.72197e-21
6.52947e-23
-2.71112e-21
6.52134e-23
-2.70034e-21
6.5127e-23
-2.68964e-21
6.50362e-23
-2.67901e-21
6.4942e-23
-2.66844e-21
6.48449e-23
-2.65795e-21
6.47458e-23
-2.64751e-21
6.46452e-23
-2.63714e-21
6.45436e-23
-2.62682e-21
6.44415e-23
-2.61656e-21
6.43394e-23
-2.60636e-21
6.42376e-23
-2.5962e-21
6.41366e-23
-2.58609e-21
6.40365e-23
-2.57603e-21
6.39377e-23
-2.56601e-21
6.38405e-23
-2.55603e-21
6.37449e-23
-2.54609e-21
6.36512e-23
-2.53619e-21
6.35596e-23
-2.52632e-21
6.34701e-23
-2.51648e-21
6.33829e-23
-2.50667e-21
6.3298e-23
-2.49688e-21
6.32155e-23
-2.48713e-21
6.31355e-23
-2.47739e-21
6.30579e-23
-2.46768e-21
6.29829e-23
-2.45798e-21
6.29104e-23
-2.44831e-21
6.28392e-23
-2.43865e-21
6.27662e-23
-2.42893e-21
6.26929e-23
-2.41905e-21
6.26221e-23
-2.40918e-21
6.25537e-23
-2.39932e-21
6.24877e-23
-2.38948e-21
6.24241e-23
-2.37965e-21
6.23628e-23
-2.36983e-21
6.23037e-23
-2.36001e-21
6.22468e-23
-2.35021e-21
6.21921e-23
-2.34041e-21
6.21393e-23
-2.33062e-21
6.20886e-23
-2.32084e-21
6.20397e-23
-2.31105e-21
6.19926e-23
-2.30128e-21
6.19473e-23
-2.2915e-21
6.19036e-23
-2.28173e-21
6.18614e-23
-2.27196e-21
6.18207e-23
-2.2622e-21
6.17814e-23
-2.25243e-21
6.17433e-23
-2.24267e-21
6.17063e-23
-2.23291e-21
6.16704e-23
-2.22314e-21
6.16354e-23
-2.21338e-21
6.16011e-23
-2.20362e-21
6.15675e-23
-2.19386e-21
6.15343e-23
-2.18409e-21
6.15015e-23
-2.17433e-21
6.14687e-23
-2.16457e-21
6.14358e-23
-2.15481e-21
6.14025e-23
-2.14505e-21
6.13687e-23
-2.13529e-21
6.13338e-23
-2.12553e-21
6.12976e-23
-2.11577e-21
6.12597e-23
-2.10601e-21
6.12194e-23
-2.09626e-21
6.11764e-23
-2.08651e-21
6.11297e-23
-2.07677e-21
6.10786e-23
-2.06703e-21
6.10221e-23
-2.0573e-21
6.09588e-23
-2.04758e-21
6.08872e-23
-2.03787e-21
6.08053e-23
-2.02816e-21
6.07102e-23
-2.01847e-21
6.05982e-23
-2.00879e-21
6.04639e-23
-1.99912e-21
6.0299e-23
-1.98944e-21
6.00902e-23
-1.97975e-21
5.98157e-23
-1.97003e-21
5.94375e-23
-1.96022e-21
5.88731e-23
-1.95024e-21
5.79133e-23
-1.93988e-21
5.60251e-23
-1.92919e-21
5.05865e-23
-1.921e-21
4.03558e-23
-1.81723e-21
3.69406e-23
-1.62175e-21
1.97666e-23
-1.48563e-21
-1.15193e-67
1.35486e-23
-7.68033e-66
1.12645e-23
2.05452e-66
1.12785e-23
1.67049e-66
9.12399e-24
7.28287e-159
6.79287e-24
-1.43819e-66
4.48595e-24
1.05157e-66
2.30613e-24
-1.61239e-66
3.9524e-24
7.32895e-159
-1.61224e-66
7.32895e-159
-2.52122e-173
7.32895e-159
-2.67773e-65
7.32895e-159
-1.34756e-65
7.32895e-159
0
7.32895e-159
0
7.32895e-159
-1.26942e-173
7.32895e-159
6.35188e-173
7.32895e-159
-5.08423e-173
7.32895e-159
0
7.32895e-159
0
7.32895e-159
0
7.32895e-159
5.08549e-173
7.32895e-159
-5.08549e-173
7.32895e-159
0
7.32895e-159
0
7.32895e-159
0
7.32895e-159
0
7.32895e-159
-1.27137e-173
7.32895e-159
3.81411e-173
7.32895e-159
-3.81411e-173
7.32895e-159
0
7.32895e-159
1.27137e-173
7.32895e-159
0
7.32895e-159
0
7.32895e-159
0
7.32895e-159
2.54274e-173
7.32895e-159
-2.54274e-173
7.32895e-159
-1.27137e-173
7.32895e-159
1.27137e-173
7.32895e-159
0
7.32895e-159
0
7.32895e-159
0
7.32895e-159
5.08549e-173
7.32895e-159
-6.35686e-173
7.32895e-159
1.27137e-173
7.32895e-159
-1.27137e-173
7.32895e-159
1.27137e-173
7.32895e-159
0
7.32895e-159
0
7.32895e-159
-1.27137e-173
7.32895e-159
0
7.32895e-159
1.27137e-173
7.32895e-159
5.08549e-173
7.32895e-159
-5.08549e-173
7.32895e-159
5.08549e-173
7.32895e-159
-5.08549e-173
7.32895e-159
0
7.32895e-159
-1.27137e-173
7.32895e-159
1.27137e-173
7.32896e-159
2.54274e-173
7.3258e-159
2.54275e-173
2.27164e-154
0
-1.68239e-164
6.14813e-21
0
1.06797e-159
-2.58831e-175
7.32895e-159
0
7.32895e-159
0
7.32895e-159
6.35686e-173
7.32895e-159
-7.62823e-173
7.32895e-159
7.62823e-173
7.32895e-159
-5.08549e-173
7.32895e-159
0
7.32895e-159
5.08549e-173
7.32895e-159
-5.08549e-173
7.32895e-159
5.08549e-173
7.33081e-159
-5.08548e-173
2.82561e-26
0
-1.36662e-21
-1.52634e-25
1.86239e-10
-1.86347e-10
4.11292e-10
-2.25004e-10
-1.14884e-09
1.56022e-09
-4.23562e-09
3.08692e-09
-8.26325e-09
4.02776e-09
-1.2809e-08
4.54579e-09
-1.75596e-08
4.75059e-09
-2.22815e-08
4.72178e-09
-2.68056e-08
4.52404e-09
-3.10129e-08
4.20726e-09
-3.48217e-08
3.80881e-09
-3.81782e-08
3.35654e-09
-4.10507e-08
2.87253e-09
-4.34286e-08
2.3779e-09
-4.53201e-08
1.8916e-09
-4.67269e-08
1.40675e-09
-4.76364e-08
9.09482e-10
-4.80165e-08
3.80124e-10
-4.78727e-08
-1.43837e-10
-4.72662e-08
-6.0643e-10
-4.62274e-08
-1.0388e-09
-4.47687e-08
-1.45874e-09
-4.29081e-08
-1.86057e-09
-4.0669e-08
-2.23905e-09
-3.80775e-08
-2.59158e-09
-3.51611e-08
-2.91636e-09
-3.19488e-08
-3.21225e-09
-2.84706e-08
-3.47826e-09
-2.47565e-08
-3.71403e-09
-2.08365e-08
-3.92003e-09
-1.67404e-08
-4.09612e-09
-1.24957e-08
-4.2447e-09
-8.11732e-09
-4.37834e-09
-3.6563e-09
-4.46101e-09
7.3271e-10
-4.389e-09
5.31203e-09
-4.57931e-09
9.88838e-09
-4.57634e-09
1.44281e-08
-4.53968e-09
1.89362e-08
-4.50815e-09
2.33975e-08
-4.46124e-09
2.779e-08
-4.39251e-09
3.20913e-08
-4.30132e-09
3.62853e-08
-4.19394e-09
4.03608e-08
-4.07549e-09
4.43105e-08
-3.94972e-09
4.81266e-08
-3.81609e-09
5.18009e-08
-3.67433e-09
5.53293e-08
-3.52833e-09
5.87092e-08
-3.37996e-09
6.19369e-08
-3.22765e-09
6.50055e-08
-3.06859e-09
6.79106e-08
-2.9051e-09
7.06557e-08
-2.74507e-09
7.32432e-08
-2.58755e-09
7.56761e-08
-2.43285e-09
7.79566e-08
-2.28056e-09
8.0088e-08
-2.13137e-09
8.2074e-08
-1.98599e-09
8.3919e-08
-1.84496e-09
8.56277e-08
-1.70871e-09
8.72053e-08
-1.57758e-09
8.86571e-08
-1.4518e-09
8.99886e-08
-1.33158e-09
9.12057e-08
-1.21703e-09
9.23139e-08
-1.10822e-09
9.33191e-08
-1.00518e-09
9.4227e-08
-9.07872e-10
9.50432e-08
-8.16249e-10
9.57734e-08
-7.30212e-10
9.64231e-08
-6.4964e-10
9.69974e-08
-5.74388e-10
9.75017e-08
-5.04295e-10
9.79409e-08
-4.3918e-10
9.83198e-08
-3.78854e-10
9.86429e-08
-3.23116e-10
9.89147e-08
-2.71761e-10
9.91392e-08
-2.2458e-10
9.93206e-08
-1.81366e-10
9.94625e-08
-1.41918e-10
9.95685e-08
-1.06017e-10
9.9642e-08
-7.34247e-11
9.96858e-08
-4.38828e-11
9.97031e-08
-1.72486e-11
9.96962e-08
6.8804e-12
9.96682e-08
2.79788e-11
9.96217e-08
4.65555e-11
9.95586e-08
6.30947e-11
9.94809e-08
7.77287e-11
9.93903e-08
9.05459e-11
9.92887e-08
1.01632e-10
9.91776e-08
1.11107e-10
9.90585e-08
1.19109e-10
9.89327e-08
1.25767e-10
9.88015e-08
1.31202e-10
9.8666e-08
1.35521e-10
9.85272e-08
1.38829e-10
9.83859e-08
1.41222e-10
9.82432e-08
1.42787e-10
9.80995e-08
1.43607e-10
9.79558e-08
1.43758e-10
9.78125e-08
1.43309e-10
9.76702e-08
1.42326e-10
9.75293e-08
1.40873e-10
9.73903e-08
1.39008e-10
9.72535e-08
1.36782e-10
9.71193e-08
1.34245e-10
9.69878e-08
1.31439e-10
9.68594e-08
1.28404e-10
9.67342e-08
1.25177e-10
9.66125e-08
1.2179e-10
9.64942e-08
1.18274e-10
9.63795e-08
1.14655e-10
9.62686e-08
1.10958e-10
9.61614e-08
1.07206e-10
9.60579e-08
1.03418e-10
9.59583e-08
9.96125e-11
9.58625e-08
9.58065e-11
9.57705e-08
9.20146e-11
9.56823e-08
8.82503e-11
9.55977e-08
8.45257e-11
9.55169e-08
8.0852e-11
9.54397e-08
7.72393e-11
9.5366e-08
7.36965e-11
9.52957e-08
7.02321e-11
9.52289e-08
6.68535e-11
9.51653e-08
6.35675e-11
9.51049e-08
6.03805e-11
9.50476e-08
5.7298e-11
9.49933e-08
5.43256e-11
9.49418e-08
5.14682e-11
9.48931e-08
4.8731e-11
9.4847e-08
4.61188e-11
9.48034e-08
4.36367e-11
9.47621e-08
4.12904e-11
9.4723e-08
3.90857e-11
9.4686e-08
3.70297e-11
9.46508e-08
3.513e-11
9.46174e-08
3.33958e-11
9.45856e-08
3.18379e-11
9.45551e-08
3.04689e-11
9.45258e-08
2.93037e-11
9.44975e-08
2.836e-11
9.44698e-08
2.76584e-11
9.44426e-08
2.72227e-11
9.44155e-08
2.70813e-11
9.43882e-08
2.72711e-11
9.43604e-08
2.78406e-11
9.43315e-08
2.88447e-11
9.43012e-08
3.0345e-11
9.42688e-08
3.24178e-11
9.42336e-08
3.5157e-11
9.41949e-08
3.86768e-11
9.41518e-08
4.31184e-11
9.41031e-08
4.86569e-11
9.40476e-08
5.55134e-11
9.39837e-08
6.39711e-11
9.39092e-08
7.44027e-11
9.38219e-08
8.73129e-11
9.37185e-08
1.03412e-10
9.35948e-08
1.23744e-10
9.34449e-08
1.49913e-10
9.32603e-08
1.84515e-10
9.30284e-08
2.31942e-10
9.27285e-08
2.99902e-10
9.23265e-08
4.01995e-10
9.17631e-08
5.63328e-10
9.0924e-08
8.39123e-10
8.95487e-08
1.37533e-09
8.67709e-08
2.77779e-09
7.81114e-08
8.65952e-09
4.53485e-08
3.27628e-08
2.29488e-08
2.23998e-08
1.38571e-21
2.29488e-08
1.92582e-22
-3.43213e-21
1.47069e-22
-2.93219e-21
1.2085e-22
-2.53868e-21
9.40422e-23
-2.19502e-21
6.94727e-23
-1.90454e-21
4.8701e-23
-1.66719e-21
4.75227e-23
-1.48431e-21
2.77044e-23
-1.36666e-21
-4.33161e-53
1.17917e-23
9.16798e-79
1.53386e-23
-6.32368e-80
1.25774e-23
-6.32369e-80
9.99275e-24
7.2801e-159
7.29325e-24
7.29857e-159
4.66838e-24
7.31194e-159
2.666e-24
7.3214e-159
-5.03356e-25
7.32714e-159
4.54814e-25
7.32895e-159
-3.00508e-52
7.32895e-159
-1.37256e-67
7.32895e-159
2.05912e-52
7.32895e-159
3.40902e-52
7.32895e-159
-5.07209e-173
7.32895e-159
3.40758e-68
7.32895e-159
2.79771e-67
7.32895e-159
2.54273e-173
7.32895e-159
-5.08549e-173
7.32895e-159
1.27137e-173
7.32895e-159
0
7.32895e-159
0
7.32895e-159
0
7.32895e-159
2.54274e-173
7.32895e-159
2.54274e-173
7.32895e-159
-5.08549e-173
7.32895e-159
0
7.32895e-159
0
7.32895e-159
0
7.32895e-159
5.08549e-173
7.32895e-159
-5.08549e-173
7.32895e-159
2.54274e-173
7.32895e-159
-2.54274e-173
7.32895e-159
0
7.32895e-159
0
7.32895e-159
5.08549e-173
7.32895e-159
-6.35686e-173
7.32895e-159
0
7.32895e-159
6.35686e-173
7.32895e-159
-5.08549e-173
7.32895e-159
-1.27137e-173
7.32895e-159
1.27137e-173
7.32895e-159
5.08549e-173
7.32895e-159
-5.08549e-173
7.32895e-159
5.08549e-173
7.32895e-159
-6.35686e-173
7.32895e-159
0
7.32895e-159
1.27137e-173
7.32895e-159
0
7.32895e-159
5.08549e-173
7.32895e-159
-2.54274e-173
7.32896e-159
-3.81411e-173
7.3258e-159
0
2.27164e-154
1.27027e-173
0
6.14813e-21
-4.44245e-36
1.06797e-159
0
7.32895e-159
5.08549e-173
7.32895e-159
-2.54274e-173
7.32895e-159
-2.54274e-173
7.32895e-159
0
7.32895e-159
5.08549e-173
7.32895e-159
-2.54274e-173
7.32895e-159
-2.54274e-173
7.32895e-159
5.08549e-173
7.32895e-159
0
7.32895e-159
-5.08549e-173
7.33027e-159
0
6.50874e-26
-2.5223e-83
-1.66067e-21
-2.64558e-25
4.39389e-10
-6.26578e-10
-2.89909e-09
3.11304e-09
-2.1284e-08
1.99451e-08
-5.31981e-08
3.50016e-08
-9.44371e-08
4.52676e-08
-1.41169e-07
5.12782e-08
-1.90254e-07
5.38363e-08
-2.39253e-07
5.37205e-08
-2.86345e-07
5.1616e-08
-3.30219e-07
4.80803e-08
-3.69957e-07
4.35469e-08
-4.04948e-07
3.83481e-08
-4.34825e-07
3.27492e-08
-4.59432e-07
2.69849e-08
-4.78788e-07
2.12474e-08
-4.92868e-07
1.54873e-08
-5.01579e-07
9.62022e-09
-5.04769e-07
3.57028e-09
-5.02566e-07
-2.34731e-09
-4.95331e-07
-7.8407e-09
-4.83373e-07
-1.29977e-08
-4.66927e-07
-1.79039e-08
-4.46213e-07
-2.25753e-08
-4.21479e-07
-2.69726e-08
-3.93006e-07
-3.10643e-08
-3.61092e-07
-3.48305e-08
-3.26046e-07