/*--------------------------------*- C++ -*----------------------------------*\
| =========                 |                                                 |
| \\      /  F ield         | OpenFOAM: The Open Source CFD Toolbox           |
|  \\    /   O peration     | Version:  2206                                  |
|   \\  /    A nd           | Website:  www.openfoam.com                      |
|    \\/     M anipulation  |                                                 |
\*---------------------------------------------------------------------------*/
FoamFile
{
    version     2.0;
    format      ascii;
    arch        "LSB;label=32;scalar=64";
    class       volVectorField;
    location    "0.09";
    object      U;
}
// * * * * * * * * * * * * * * * * * * * * * * * * * * * * * * * * * * * * * //

dimensions      [0 1 -1 0 0 0 0];

internalField   nonuniform List<vector> 
15000
(
(0 0 0)
(0 0 0)
(0 0 0)
(0 0 0)
(0 0 0)
(0 0 0)
(0 0 0)
(0 0 0)
(0 0 0)
(0 0 0)
(0 0 0)
(0 0 0)
(0 0 0)
(0 0 0)
(0 0 0)
(0 0 0)
(0 0 0)
(0 0 0)
(0 0 0)
(0 0 0)
(0 0 0)
(0 0 0)
(0 0 0)
(0 0 0)
(0 0 0)
(0 0 0)
(0 0 0)
(0 0 0)
(0 0 0)
(0 0 0)
(0 0 0)
(0 0 0)
(0 0 0)
(0 0 0)
(0 0 0)
(0 0 0)
(0 0 0)
(0 0 0)
(0 0 0)
(0 0 0)
(0 0 0)
(0 0 0)
(0 0 0)
(0 0 0)
(0 0 0)
(0 0 0)
(0 0 0)
(0 0 0)
(0 0 0)
(0 0 0)
(0 0 0)
(0 0 0)
(0 0 0)
(0 0 0)
(0 0 0)
(0 0 0)
(0 0 0)
(0 0 0)
(0 0 0)
(0 0 0)
(0 0 0)
(0 0 0)
(0 0 0)
(0 0 0)
(0 0 0)
(0 0 0)
(0 0 0)
(0 0 0)
(0 0 0)
(0 0 0)
(0 0 0)
(0 0 0)
(0 0 0)
(0 0 0)
(0 0 0)
(0 0 0)
(0 0 0)
(0 0 0)
(0 0 0)
(0 0 0)
(0 0 0)
(0 0 0)
(0 0 0)
(0 0 0)
(0 0 0)
(0 0 0)
(0 0 0)
(0 0 0)
(0 0 0)
(0 0 0)
(0 0 0)
(0 0 0)
(0 0 0)
(0 0 0)
(0 0 0)
(0 0 0)
(0 0 0)
(0 0 0)
(0 0 0)
(0 0 0)
(0 0 0)
(0 0 0)
(0 0 0)
(0 0 0)
(0 0 0)
(0 0 0)
(0 0 0)
(0 0 0)
(0 0 0)
(0 0 0)
(0 0 0)
(0 0 0)
(0 0 0)
(0 0 0)
(0 0 0)
(0 0 0)
(0 0 0)
(0 0 0)
(0 0 0)
(0 0 0)
(0 0 0)
(0 0 0)
(0 0 0)
(0 0 0)
(0 0 0)
(0 0 0)
(0 0 0)
(0 0 0)
(0 0 0)
(0 0 0)
(0 0 0)
(0 0 0)
(0 0 0)
(0 0 0)
(0 0 0)
(0 0 0)
(0 0 0)
(0 0 0)
(0 0 0)
(0 0 0)
(0 0 0)
(0 0 0)
(0 0 0)
(0 0 0)
(0 0 0)
(0 0 0)
(0 0 0)
(0 0 0)
(0 0 0)
(0 0 0)
(0 0 0)
(0 0 0)
(0 0 0)
(0 0 0)
(0 0 0)
(0 0 0)
(0 0 0)
(0 0 0)
(0 0 0)
(0 0 0)
(0 0 0)
(0 0 0)
(0 0 0)
(0 0 0)
(0 0 0)
(0 0 0)
(0 0 0)
(0 0 0)
(0 0 0)
(0 0 0)
(0 0 0)
(0 0 0)
(0 0 0)
(0 0 0)
(0 0 0)
(0 0 0)
(0 0 0)
(0 0 0)
(0 0 0)
(0 0 0)
(0 0 0)
(0 0 0)
(0 0 0)
(0 0 0)
(0 0 0)
(0 0 0)
(0 0 0)
(0 0 0)
(0 0 0)
(0 0 0)
(0 0 0)
(0 0 0)
(0 0 0)
(0 0 0)
(0 0 0)
(0 0 0)
(0 0 0)
(0 0 0)
(0 0 0)
(0 0 0)
(0 0 0)
(0 0 0)
(0 0 0)
(0 0 0)
(0 0 0)
(0 0 0)
(0 0 0)
(0 0 0)
(0 0 0)
(0 0 0)
(0 0 0)
(0 0 0)
(0 0 0)
(0 0 0)
(0 0 0)
(0 0 0)
(0 0 0)
(0 0 0)
(0 0 0)
(0 0 0)
(0 0 0)
(0 0 0)
(0 0 0)
(0 0 0)
(0 0 0)
(0 0 0)
(0 0 0)
(0 0 0)
(0 0 0)
(0 0 0)
(0 0 0)
(0 0 0)
(0 0 0)
(0 0 0)
(0 0 0)
(0 0 0)
(0 0 0)
(0 0 0)
(0 0 0)
(0 0 0)
(0 0 0)
(0 0 0)
(0 0 0)
(0 0 0)
(0 0 0)
(0 0 0)
(0 0 0)
(0 0 0)
(0 0 0)
(0 0 0)
(0 0 0)
(0 0 0)
(0 0 0)
(0 0 0)
(0 0 0)
(0 0 0)
(0 0 0)
(0 0 0)
(0 0 0)
(0 0 0)
(0 0 0)
(0 0 0)
(0 0 0)
(0 0 0)
(0 0 0)
(0 0 0)
(0 0 0)
(0 0 0)
(0 0 0)
(0 0 0)
(0 0 0)
(0 0 0)
(0 0 0)
(0 0 0)
(0 0 0)
(0 0 0)
(0 0 0)
(0 0 0)
(0 0 0)
(0 0 0)
(0 0 0)
(0 0 0)
(0 0 0)
(0 0 0)
(0 0 0)
(0 0 0)
(0 0 0)
(0 0 0)
(0 0 0)
(0 0 0)
(0 0 0)
(0 0 0)
(0 0 0)
(0 0 0)
(0 0 0)
(0 0 0)
(0 0 0)
(0 0 0)
(0 0 0)
(0 0 0)
(0 0 0)
(0 0 0)
(0 0 0)
(0 0 0)
(0 0 0)
(0 0 0)
(0 0 0)
(0 0 0)
(0 0 0)
(0 0 0)
(0 0 0)
(0 0 0)
(0 0 0)
(0 0 0)
(0 0 0)
(0 0 0)
(0 0 0)
(0 0 0)
(0 0 0)
(0 0 0)
(0 0 0)
(0 0 0)
(0 0 0)
(0 0 0)
(0 0 0)
(0 0 0)
(0 0 0)
(0 0 0)
(0 0 0)
(0 0 0)
(0 0 0)
(0 0 0)
(0 0 0)
(0 0 0)
(0 0 0)
(0 0 0)
(0 0 0)
(0 0 0)
(0 0 0)
(0 0 0)
(0 0 0)
(0 0 0)
(0 0 0)
(0 0 0)
(0 0 0)
(0 0 0)
(0 0 0)
(0 0 0)
(0 0 0)
(0 0 0)
(0 0 0)
(0 0 0)
(0 0 0)
(0 0 0)
(0 0 0)
(0 0 0)
(0 0 0)
(0 0 0)
(0 0 0)
(0 0 0)
(0 0 0)
(0 0 0)
(0 0 0)
(0 0 0)
(0 0 0)
(0 0 0)
(0 0 0)
(0 0 0)
(0 0 0)
(0 0 0)
(0 0 0)
(0 0 0)
(0 0 0)
(0 0 0)
(0 0 0)
(0 0 0)
(0 0 0)
(0 0 0)
(0 0 0)
(0 0 0)
(0 0 0)
(0 0 0)
(0 0 0)
(0 0 0)
(0 0 0)
(0 0 0)
(0 0 0)
(0 0 0)
(0 0 0)
(0 0 0)
(0 0 0)
(0 0 0)
(0 0 0)
(0 0 0)
(0 0 0)
(0 0 0)
(0 0 0)
(0 0 0)
(0 0 0)
(0 0 0)
(0 0 0)
(0 0 0)
(0 0 0)
(0 0 0)
(0 0 0)
(0 0 0)
(0 0 0)
(0 0 0)
(0 0 0)
(0 0 0)
(0 0 0)
(0 0 0)
(0 0 0)
(0 0 0)
(0 0 0)
(0 0 0)
(0 0 0)
(0 0 0)
(0 0 0)
(0 0 0)
(0 0 0)
(0 0 0)
(0 0 0)
(0 0 0)
(0 0 0)
(0 0 0)
(0 0 0)
(0 0 0)
(0 0 0)
(0 0 0)
(0 0 0)
(0 0 0)
(0 0 0)
(0 0 0)
(0 0 0)
(0 0 0)
(0 0 0)
(0 0 0)
(0 0 0)
(0 0 0)
(0 0 0)
(0 0 0)
(0 0 0)
(0 0 0)
(0 0 0)
(0 0 0)
(0 0 0)
(0 0 0)
(0 0 0)
(0 0 0)
(0 0 0)
(0 0 0)
(0 0 0)
(0 0 0)
(0 0 0)
(0 0 0)
(0 0 0)
(0 0 0)
(0 0 0)
(0 0 0)
(0 0 0)
(0 0 0)
(0 0 0)
(0 0 0)
(0 0 0)
(0 0 0)
(0 0 0)
(0 0 0)
(0 0 0)
(0 0 0)
(0 0 0)
(0 0 0)
(0 0 0)
(0 0 0)
(0 0 0)
(0 0 0)
(0 0 0)
(0 0 0)
(0 0 0)
(0 0 0)
(0 0 0)
(0 0 0)
(0 0 0)
(0 0 0)
(0 0 0)
(0 0 0)
(0 0 0)
(0 0 0)
(0 0 0)
(0 0 0)
(0 0 0)
(0 0 0)
(0 0 0)
(0 0 0)
(0 0 0)
(0 0 0)
(0 0 0)
(0 0 0)
(0 0 0)
(0 0 0)
(0 0 0)
(0 0 0)
(0 0 0)
(0 0 0)
(0 0 0)
(0 0 0)
(0 0 0)
(0 0 0)
(0 0 0)
(0 0 0)
(0 0 0)
(0 0 0)
(0 0 0)
(0 0 0)
(0 0 0)
(0 0 0)
(0 0 0)
(0 0 0)
(0 0 0)
(0 0 0)
(0 0 0)
(0 0 0)
(0 0 0)
(0 0 0)
(0 0 0)
(0 0 0)
(0 0 0)
(0 0 0)
(0 0 0)
(0 0 0)
(0 0 0)
(0 0 0)
(0 0 0)
(0 0 0)
(0 0 0)
(0 0 0)
(0 0 0)
(0 0 0)
(0 0 0)
(0 0 0)
(0 0 0)
(0 0 0)
(0 0 0)
(0 0 0)
(0 0 0)
(0 0 0)
(0 0 0)
(0 0 0)
(0 0 0)
(0 0 0)
(0 0 0)
(0 0 0)
(0 0 0)
(0 0 0)
(0 0 0)
(0 0 0)
(0 0 0)
(0 0 0)
(0 0 0)
(0 0 0)
(0 0 0)
(0 0 0)
(0 0 0)
(0 0 0)
(0 0 0)
(0 0 0)
(0 0 0)
(0 0 0)
(0 0 0)
(0 0 0)
(0 0 0)
(0 0 0)
(0 0 0)
(0 0 0)
(0 0 0)
(0 0 0)
(0 0 0)
(0 0 0)
(0 0 0)
(0 0 0)
(0 0 0)
(0 0 0)
(0 0 0)
(0 0 0)
(0 0 0)
(0 0 0)
(0 0 0)
(0 0 0)
(0 0 0)
(0 0 0)
(0 0 0)
(0 0 0)
(0 0 0)
(0 0 0)
(0 0 0)
(0 0 0)
(0 0 0)
(0 0 0)
(0 0 0)
(0 0 0)
(0 0 0)
(0 0 0)
(0 0 0)
(0 0 0)
(0 0 0)
(0 0 0)
(0 0 0)
(0 0 0)
(0 0 0)
(0 0 0)
(0 0 0)
(0 0 0)
(0 0 0)
(0 0 0)
(0 0 0)
(0 0 0)
(0 0 0)
(0 0 0)
(0 0 0)
(0 0 0)
(0 0 0)
(0 0 0)
(0 0 0)
(0 0 0)
(0 0 0)
(0 0 0)
(0 0 0)
(0 0 0)
(0 0 0)
(0 0 0)
(0 0 0)
(0 0 0)
(0 0 0)
(0 0 0)
(0 0 0)
(0 0 0)
(0 0 0)
(0 0 0)
(0 0 0)
(0 0 0)
(0 0 0)
(0 0 0)
(0 0 0)
(0 0 0)
(0 0 0)
(0 0 0)
(0 0 0)
(0 0 0)
(0 0 0)
(0 0 0)
(0 0 0)
(0 0 0)
(0 0 0)
(0 0 0)
(0 0 0)
(0 0 0)
(0 0 0)
(0 0 0)
(0 0 0)
(0 0 0)
(0 0 0)
(0 0 0)
(0 0 0)
(0 0 0)
(0 0 0)
(0 0 0)
(0 0 0)
(0 0 0)
(0 0 0)
(0 0 0)
(0 0 0)
(0 0 0)
(0 0 0)
(0 0 0)
(0 0 0)
(0 0 0)
(0 0 0)
(0 0 0)
(0 0 0)
(0 0 0)
(0 0 0)
(0 0 0)
(0 0 0)
(0 0 0)
(0 0 0)
(0 0 0)
(0 0 0)
(0 0 0)
(0 0 0)
(0 0 0)
(0 0 0)
(0 0 0)
(0 0 0)
(0 0 0)
(0 0 0)
(0 0 0)
(0 0 0)
(0 0 0)
(0 0 0)
(0 0 0)
(0 0 0)
(0 0 0)
(0 0 0)
(0 0 0)
(0 0 0)
(0 0 0)
(0 0 0)
(0 0 0)
(0 0 0)
(0 0 0)
(0 0 0)
(0 0 0)
(0 0 0)
(0 0 0)
(0 0 0)
(0 0 0)
(0 0 0)
(0 0 0)
(0 0 0)
(0 0 0)
(0 0 0)
(0 0 0)
(0 0 0)
(0 0 0)
(0 0 0)
(0 0 0)
(0 0 0)
(0 0 0)
(0 0 0)
(0 0 0)
(0 0 0)
(0 0 0)
(0 0 0)
(0 0 0)
(0 0 0)
(0 0 0)
(0 0 0)
(0 0 0)
(0 0 0)
(0 0 0)
(0 0 0)
(0 0 0)
(0 0 0)
(0 0 0)
(0 0 0)
(0 0 0)
(0 0 0)
(0 0 0)
(0 0 0)
(0 0 0)
(0 0 0)
(0 0 0)
(0 0 0)
(0 0 0)
(0 0 0)
(0 0 0)
(0 0 0)
(0 0 0)
(0 0 0)
(0 0 0)
(0 0 0)
(0 0 0)
(0 0 0)
(0 0 0)
(0 0 0)
(0 0 0)
(0 0 0)
(0 0 0)
(0 0 0)
(0 0 0)
(0 0 0)
(0 0 0)
(0 0 0)
(0 0 0)
(0 0 0)
(0 0 0)
(0 0 0)
(0 0 0)
(0 0 0)
(0 0 0)
(0 0 0)
(0 0 0)
(0 0 0)
(0 0 0)
(0 0 0)
(0 0 0)
(0 0 0)
(0 0 0)
(0 0 0)
(0 0 0)
(0 0 0)
(0 0 0)
(0 0 0)
(0 0 0)
(0 0 0)
(0 0 0)
(0 0 0)
(0 0 0)
(0 0 0)
(0 0 0)
(0 0 0)
(0 0 0)
(0 0 0)
(0 0 0)
(0 0 0)
(0 0 0)
(0 0 0)
(0 0 0)
(0 0 0)
(0 0 0)
(0 0 0)
(0 0 0)
(0 0 0)
(0 0 0)
(0 0 0)
(0 0 0)
(0 0 0)
(0 0 0)
(0 0 0)
(0 0 0)
(0 0 0)
(0 0 0)
(0 0 0)
(0 0 0)
(0 0 0)
(0 0 0)
(0 0 0)
(0 0 0)
(0 0 0)
(0 0 0)
(0 0 0)
(0 0 0)
(0 0 0)
(0 0 0)
(0 0 0)
(0 0 0)
(0 0 0)
(0 0 0)
(0 0 0)
(0 0 0)
(0 0 0)
(0 0 0)
(0 0 0)
(0 0 0)
(0 0 0)
(0 0 0)
(0 0 0)
(0 0 0)
(0 0 0)
(0 0 0)
(0 0 0)
(0 0 0)
(0 0 0)
(0 0 0)
(0 0 0)
(0 0 0)
(0 0 0)
(0 0 0)
(0 0 0)
(0 0 0)
(0 0 0)
(0 0 0)
(0 0 0)
(0 0 0)
(0 0 0)
(0 0 0)
(0 0 0)
(0 0 0)
(0 0 0)
(0 0 0)
(0 0 0)
(0 0 0)
(0 0 0)
(0 0 0)
(0 0 0)
(0 0 0)
(0 0 0)
(0 0 0)
(0 0 0)
(0 0 0)
(0 0 0)
(0 0 0)
(0 0 0)
(0 0 0)
(0 0 0)
(0 0 0)
(0 0 0)
(0 0 0)
(0 0 0)
(0 0 0)
(0 0 0)
(0 0 0)
(0 0 0)
(0 0 0)
(0 0 0)
(0 0 0)
(0 0 0)
(0 0 0)
(0 0 0)
(0 0 0)
(0 0 0)
(0 0 0)
(0 0 0)
(0 0 0)
(0 0 0)
(0 0 0)
(0 0 0)
(0 0 0)
(0 0 0)
(0 0 0)
(0 0 0)
(0 0 0)
(0 0 0)
(0 0 0)
(0 0 0)
(0 0 0)
(0 0 0)
(0 0 0)
(0 0 0)
(0 0 0)
(0 0 0)
(0 0 0)
(0 0 0)
(0 0 0)
(0 0 0)
(0 0 0)
(0 0 0)
(0 0 0)
(0 0 0)
(0 0 0)
(0 0 0)
(0 0 0)
(0 0 0)
(0 0 0)
(0 0 0)
(0 0 0)
(0 0 0)
(0 0 0)
(0 0 0)
(0 0 0)
(0 0 0)
(0 0 0)
(0 0 0)
(0 0 0)
(0 0 0)
(0 0 0)
(0 0 0)
(0 0 0)
(0 0 0)
(0 0 0)
(0 0 0)
(0 0 0)
(0 0 0)
(0 0 0)
(0 0 0)
(0 0 0)
(0 0 0)
(0 0 0)
(0 0 0)
(0 0 0)
(0 0 0)
(0 0 0)
(0 0 0)
(0 0 0)
(0 0 0)
(0 0 0)
(0 0 0)
(0 0 0)
(0 0 0)
(0 0 0)
(0 0 0)
(0 0 0)
(0 0 0)
(0 0 0)
(0 0 0)
(0 0 0)
(0 0 0)
(0 0 0)
(0 0 0)
(0 0 0)
(0 0 0)
(0 0 0)
(0 0 0)
(0 0 0)
(0 0 0)
(0 0 0)
(0 0 0)
(0 0 0)
(0 0 0)
(0 0 0)
(0 0 0)
(0 0 0)
(0 0 0)
(0 0 0)
(0 0 0)
(0 0 0)
(0 0 0)
(0 0 0)
(0 0 0)
(0 0 0)
(0 0 0)
(0 0 0)
(0 0 0)
(0 0 0)
(0 0 0)
(0 0 0)
(0 0 0)
(0 0 0)
(0 0 0)
(0 0 0)
(0 0 0)
(0 0 0)
(0 0 0)
(0 0 0)
(0 0 0)
(0.000109808 -0.000103773 1.81023e-18)
(0.000418678 -0.000140369 -4.36822e-16)
(-1.91608e-05 0.000156216 -8.79434e-16)
(-0.00302338 0.000342357 0)
(-0.00760927 0.000449195 0)
(-0.0130647 0.000506278 -1.75193e-15)
(-0.0189535 0.000525567 -3.43519e-15)
(-0.0249328 0.000518471 -1.82957e-15)
(-0.0307544 0.000493897 4.40125e-31)
(-0.0362418 0.000458015 0)
(-0.0412725 0.000414974 0)
(-0.0457641 0.000367567 -2.18101e-30)
(-0.0496642 0.000317872 -1.48911e-16)
(-0.0529466 0.000268149 4.49207e-16)
(-0.0556138 0.000220864 -3.00295e-16)
(-0.057677 0.000174202 -1.23136e-15)
(-0.0591312 0.000125534 -1.56266e-15)
(-0.059936 6.84331e-05 -1.8865e-15)
(-0.0600805 3.86006e-06 -9.52583e-16)
(-0.0595957 -3.00666e-05 -3.18161e-16)
(-0.0585595 -7.25996e-05 3.18162e-16)
(-0.0569953 -0.000113761 6.49294e-16)
(-0.054914 -0.0001543 -6.493e-16)
(-0.0523441 -0.000192833 1.0017e-30)
(-0.0493169 -0.000228938 5.05704e-31)
(-0.0458659 -0.000262367 1.01207e-15)
(-0.0420267 -0.000292956 -1.69282e-15)
(-0.0378362 -0.000320547 6.8074e-16)
(-0.0333321 -0.000345033 0)
(-0.0285519 -0.000366354 0)
(-0.023533 -0.000384582 -1.76499e-15)
(-0.0183116 -0.000399904 3.39623e-16)
(-0.0129185 -0.000412169 -7.07131e-16)
(-0.00736327 -0.000376968 1.43094e-15)
(-0.00184228 -0.000278768 -2.86932e-15)
(0.00375404 -0.000481944 -7.50303e-16)
(0.00950731 -0.000479006 -2.19817e-15)
(0.0152047 -0.000437392 1.45618e-15)
(0.0208636 -0.000433689 -7.25816e-16)
(0.0266308 -0.00063534 -2.5389e-15)
(0.0322908 -0.000869136 -1.55849e-15)
(0.0377849 -0.00109099 3.98121e-16)
(0.0430936 -0.0012989 -2.82336e-16)
(0.0482044 -0.00149606 -2.52058e-31)
(0.0531065 -0.00168168 -6.90635e-17)
(0.0577924 -0.00170889 0)
(0.062327 -0.00150134 0)
(0.0667527 -0.00121754 0)
(0.0710563 -0.000949331 0)
(0.0752299 -0.000695581 -4.72638e-16)
(0.0792651 -0.000456155 6.11993e-16)
(0.0831218 -0.000268795 0)
(0.0866521 -0.000251934 0)
(0.0899835 -0.000236839 0)
(0.0931206 -0.000221715 1.45126e-15)
(0.0960657 -0.000206844 -2.89832e-15)
(0.0988221 -0.000192321 4.33238e-15)
(0.101394 -0.000178227 -2.88529e-15)
(0.103787 -0.000164619 0)
(0.106007 -0.000151537 -3.26025e-15)
(0.108059 -0.000139011 -3.24879e-15)
(0.109951 -0.00012706 -2.15801e-15)
(0.111689 -0.000115698 -3.2869e-30)
(0.11328 -0.00010493 2.14178e-15)
(0.114732 -9.4759e-05 -1.06672e-15)
(0.116051 -8.51807e-05 -1.06251e-15)
(0.117245 -7.61877e-05 5.35182e-30)
(0.118321 -6.77689e-05 -2.76858e-15)
(0.119286 -5.99104e-05 4.14712e-15)
(0.120146 -5.25959e-05 -2.42383e-15)
(0.12091 -4.58069e-05 3.26107e-16)
(0.121583 -3.95237e-05 -3.30456e-16)
(0.122171 -3.37252e-05 1.03223e-15)
(0.122681 -2.83897e-05 -3.72747e-15)
(0.123118 -2.34947e-05 1.67603e-15)
(0.123489 -1.90177e-05 -1.33838e-15)
(0.123798 -1.49366e-05 1.33838e-15)
(0.12405 -1.12297e-05 -4.11841e-30)
(0.124251 -7.87716e-06 0)
(0.124405 -4.86047e-06 0)
(0.124516 -2.19804e-06 2.62071e-15)
(0.124589 1.79715e-07 -2.62071e-15)
(0.124626 1.73182e-06 -3.89819e-15)
(0.124632 3.51244e-06 3.89819e-15)
(0.124609 5.62282e-06 -9.81376e-16)
(0.124562 7.46118e-06 -9.77307e-16)
(0.124493 8.80577e-06 -1.27795e-15)
(0.124404 9.95084e-06 -1.26741e-15)
(0.124298 1.09091e-05 1.88227e-15)
(0.124178 1.17087e-05 -3.19009e-15)
(0.124044 1.23669e-05 -1.25711e-15)
(0.1239 1.28983e-05 4.41607e-15)
(0.123746 1.33158e-05 6.47238e-16)
(0.123585 1.36309e-05 4.72859e-31)
(0.123418 1.38559e-05 4.76204e-30)
(0.123247 1.39981e-05 -3.82206e-30)
(0.123071 1.40656e-05 0)
(0.122894 1.40665e-05 2.44388e-15)
(0.122714 1.40081e-05 -2.44388e-15)
(0.122535 1.38971e-05 0)
(0.122355 1.37392e-05 -2.4146e-15)
(0.122176 1.35401e-05 2.4146e-15)
(0.121999 1.33063e-05 -2.39531e-15)
(0.121824 1.30426e-05 5.78428e-16)
(0.121652 1.27532e-05 -1.80962e-15)
(0.121482 1.2442e-05 7.10008e-15)
(0.121316 1.21129e-05 -7.10008e-15)
(0.121154 1.17691e-05 0)
(0.120995 1.14135e-05 2.33839e-15)
(0.120841 1.10489e-05 -6.99642e-15)
(0.120691 1.06777e-05 4.65803e-15)
(0.120545 1.0302e-05 1.75948e-15)
(0.120404 9.92388e-06 5.47829e-15)
(0.120268 9.54495e-06 -1.7639e-15)
(0.120136 9.16682e-06 -5.12776e-15)
(0.120009 8.79089e-06 6.61068e-15)
(0.119887 8.41841e-06 4.31062e-15)
(0.11977 8.0505e-06 2.57587e-15)
(0.119657 7.68817e-06 -8.55127e-16)
(0.119549 7.33231e-06 -8.51636e-16)
(0.119446 6.98374e-06 -4.24061e-31)
(0.119347 6.64319e-06 -4.22321e-31)
(0.119252 6.31129e-06 -8.41191e-16)
(0.119163 5.98865e-06 -8.37717e-16)
(0.119077 5.67578e-06 4.38152e-15)
(0.118995 5.37316e-06 -4.90161e-15)
(0.118918 5.0812e-06 3.83627e-15)
(0.118844 4.8003e-06 0)
(0.118775 4.53082e-06 0)
(0.118709 4.27309e-06 5.92429e-15)
(0.118646 4.02747e-06 -2.66349e-15)
(0.118587 3.79429e-06 -8.10015e-16)
(0.118531 3.57394e-06 -8.0656e-16)
(0.118478 3.36682e-06 0)
(0.118428 3.1734e-06 6.88521e-30)
(0.11838 2.99424e-06 4.97756e-15)
(0.118335 2.83e-06 -3.38862e-15)
(0.118292 2.68144e-06 -7.89294e-16)
(0.118251 2.54951e-06 -7.85842e-16)
(0.118213 2.43532e-06 0)
(0.118175 2.34021e-06 0)
(0.118139 2.26575e-06 -4.07238e-15)
(0.118104 2.21375e-06 4.07238e-15)
(0.11807 2.18625e-06 0)
(0.118036 2.18562e-06 0)
(0.118002 2.21528e-06 0)
(0.117968 2.28019e-06 -4.25789e-29)
(0.117933 2.38536e-06 3.96341e-15)
(0.117896 2.53592e-06 -3.96341e-15)
(0.117857 2.7386e-06 -1.96355e-15)
(0.117815 3.00163e-06 3.45243e-15)
(0.117769 3.33493e-06 1.48199e-15)
(0.117718 3.75048e-06 -1.93635e-15)
(0.117661 4.26286e-06 3.86365e-15)
(0.117597 4.88997e-06 -9.0511e-18)
(0.117522 5.65415e-06 -1.19101e-15)
(0.117437 6.58404e-06 -3.13402e-32)
(0.117336 7.71787e-06 -2.61153e-15)
(0.117218 9.1096e-06 1.89115e-15)
(0.117078 1.0841e-05 4.45983e-15)
(0.116909 1.30466e-05 -3.03615e-15)
(0.116703 1.59658e-05 -7.06741e-16)
(0.116448 2.00567e-05 -7.03351e-16)
(0.116124 2.62368e-05 0)
(0.115699 3.64252e-05 -3.48223e-31)
(0.115121 5.48941e-05 -5.45761e-15)
(0.114294 9.15655e-05 5.45762e-15)
(0.112995 0.000167393 -3.4303e-31)
(0.110628 0.000366477 0)
(0.105631 0.00117238 2.04287e-15)
(0.0913843 0.00520757 0)
(0.070155 0.00418853 -8.39668e-16)
(0.0841007 0.00910827 -1.77491e-16)
(0 0 0)
(0 0 0)
(0 0 0)
(0 0 0)
(0 0 0)
(0 0 0)
(0 0 0)
(0 0 0)
(0 0 0)
(0 0 0)
(0 0 0)
(0 0 0)
(0 0 0)
(0 0 0)
(0 0 0)
(0 0 0)
(0 0 0)
(0 0 0)
(0 0 0)
(0 0 0)
(0 0 0)
(0 0 0)
(0 0 0)
(0 0 0)
(0 0 0)
(0 0 0)
(0 0 0)
(0 0 0)
(0 0 0)
(0 0 0)
(0 0 0)
(0 0 0)
(0 0 0)
(0 0 0)
(0 0 0)
(0 0 0)
(0 0 0)
(0 0 0)
(0 0 0)
(0 0 0)
(0 0 0)
(0 0 0)
(0 0 0)
(0 0 0)
(0 0 0)
(0 0 0)
(0 0 0)
(0 0 0)
(0 0 0)
(0 0 0)
(0 0 0)
(0 0 0)
(0 0 0)
(0 0 0)
(0 0 0)
(0 0 0)
(0 0 0)
(0 0 0)
(0 0 0)
(0 0 0)
(0 0 0)
(0 0 0)
(0 0 0)
(0 0 0)
(0 0 0)
(0 0 0)
(0 0 0)
(0 0 0)
(0 0 0)
(0 0 0)
(0 0 0)
(0 0 0)
(0 0 0)
(0 0 0)
(0 0 0)
(0 0 0)
(0 0 0)
(0.000303399 -0.000650408 0)
(0.000729015 -0.000415644 1.47122e-15)
(-0.00452459 0.00224615 1.58794e-15)
(-0.0173228 0.00465096 0)
(-0.0360867 0.00617082 0)
(-0.0584577 0.00701519 -9.11663e-18)
(-0.0827307 0.00735464 2.82546e-15)
(-0.107499 0.00732195 3.49212e-15)
(-0.131706 0.00702332 -1.31091e-15)
(-0.15458 0.00653972 1.31031e-15)
(-0.175574 0.00593094 0)
(-0.194316 0.00524096 -4.56327e-15)
(-0.210566 0.00450414 1.33166e-15)
(-0.224195 0.00375192 3.27588e-15)
(-0.235186 0.00301191 0)
(-0.243555 0.00227206 2.88555e-16)
(-0.24927 0.00151487 4.73233e-15)
(-0.252215 0.000714354 6.19161e-15)
(-0.252456 -7.40006e-05 -1.08991e-15)
(-0.250074 -0.000792357 -5.7138e-15)
(-0.245212 -0.0014617 5.71421e-15)
(-0.238095 -0.00210162 2.91402e-15)
(-0.228777 -0.00271486 -4.38593e-15)
(-0.217382 -0.00329463 1.47174e-15)
(-0.204045 -0.00383575 1.81424e-15)
(-0.188912 -0.00433496 6.37353e-15)
(-0.172134 -0.00479024 -3.90303e-15)
(-0.15387 -0.00520006 8.00346e-15)
(-0.134278 -0.00556374 -4.96388e-15)
(-0.113521 -0.00588142 -3.79142e-15)
(-0.0917573 -0.00615373 -8.21843e-15)
(-0.0691461 -0.00638349 1.20935e-14)
(-0.0458411 -0.00657273 3.87491e-15)
(-0.022007 -0.00669592 6.43859e-15)
(0.00215289 -0.00661551 -9.67637e-15)
(0.0265853 -0.00685402 7.18496e-15)
(0.0511995 -0.00688281 1.98758e-15)
(0.0757853 -0.00685326 4.56064e-15)
(0.100216 -0.00680709 -3.26031e-15)
(0.124459 -0.0067809 7.19578e-16)
(0.148388 -0.00671925 4.00627e-15)
(0.171889 -0.00661907 4.59386e-15)
(0.194869 -0.00649139 -8.59488e-15)
(0.217257 -0.00634681 0)
(0.239008 -0.00619149 2.00954e-15)
(0.260076 -0.0059949 2.00906e-15)
(0.280404 -0.00574171 0)
(0.299948 -0.00546941 0)
(0.318691 -0.00519852 0)
(0.336623 -0.00492487 3.9924e-15)
(0.353723 -0.004642 3.98525e-15)
(0.369961 -0.00435623 0)
(0.385318 -0.00410956 0)
(0.399847 -0.00387216 0)
(0.413539 -0.00363769 6.48794e-15)
(0.426406 -0.0034067 -1.94228e-14)
(0.438462 -0.00318056 1.93809e-14)
(0.449726 -0.00296036 -6.44611e-15)
(0.460218 -0.00274694 0)
(0.469963 -0.00254094 5.83243e-15)
(0.478986 -0.00234287 5.81094e-15)
(0.487315 -0.0021531 1.21201e-14)
(0.494979 -0.0019719 -4.41132e-15)
(0.502006 -0.00179945 -3.82921e-15)
(0.508429 -0.00163582 6.25956e-15)
(0.514276 -0.00148104 -1.00522e-14)
(0.519579 -0.00133506 -3.78054e-15)
(0.524368 -0.00119776 -1.2363e-14)
(0.528673 -0.001069 1.2362e-14)
(0.532524 -0.000948561 1.86776e-15)
(0.535949 -0.000836226 7.96397e-15)
(0.538976 -0.000731729 -7.95572e-15)
(0.541634 -0.000634789 -1.84413e-15)
(0.543947 -0.000545104 -1.02176e-14)
(0.545941 -0.000462364 1.38819e-14)
(0.547641 -0.000386248 0)
(0.549069 -0.000316433 5.95069e-15)
(0.550247 -0.0002526 -5.95056e-15)
(0.551198 -0.000194445 0)
(0.551939 -0.000141688 -5.87576e-15)
(0.55249 -9.4019e-05 5.8757e-15)
(0.552871 -5.05625e-05 0)
(0.553092 -1.0533e-05 -5.80236e-15)
(0.553167 2.47595e-05 1.15806e-14)
(0.553119 5.4729e-05 -4.02532e-15)
(0.552963 8.11293e-05 1.74565e-15)
(0.552708 0.000105083 -2.22992e-15)
(0.552364 0.000126382 -2.19731e-15)
(0.551941 0.000144874 1.48154e-14)
(0.551451 0.000160733 3.43427e-15)
(0.550902 0.000174193 -1.12284e-14)
(0.550302 0.000185472 7.82219e-15)
(0.54966 0.000194768 7.74508e-15)
(0.548982 0.000202262 -7.75867e-15)
(0.548276 0.000208124 3.36553e-15)
(0.547546 0.000212504 0)
(0.546799 0.000215544 0)
(0.546039 0.000217378 1.09156e-14)
(0.545271 0.000218127 -1.63518e-14)
(0.544498 0.000217906 5.43609e-15)
(0.543724 0.000216815 -1.64274e-15)
(0.542953 0.000214951 -1.63619e-15)
(0.542187 0.000212412 -1.60493e-14)
(0.541429 0.000209284 1.92956e-14)
(0.540681 0.000205643 3.23309e-15)
(0.539945 0.000201559 3.17164e-14)
(0.539222 0.000197097 -3.17169e-14)
(0.538514 0.000192314 0)
(0.537823 0.000187264 0)
(0.537149 0.000181995 -2.08086e-14)
(0.536492 0.000176551 2.08089e-14)
(0.535855 0.000170971 -3.14381e-15)
(0.535237 0.000165291 1.89938e-14)
(0.534639 0.000159543 -7.20269e-15)
(0.534061 0.000153758 -2.35417e-14)
(0.533503 0.000147959 2.46335e-15)
(0.532966 0.000142173 -7.70261e-15)
(0.532449 0.000136419 -4.60284e-15)
(0.531952 0.000130718 1.52805e-15)
(0.531476 0.000125087 1.52182e-15)
(0.531019 0.000119542 0)
(0.530583 0.000114097 9.91014e-15)
(0.530165 0.000108765 -8.40703e-15)
(0.529767 0.000103558 1.497e-15)
(0.529387 9.84872e-05 2.93636e-14)
(0.529026 9.35612e-05 -3.23331e-14)
(0.528682 8.87893e-05 -2.95689e-15)
(0.528355 8.41797e-05 0)
(0.528044 7.974e-05 9.62521e-15)
(0.52775 7.54773e-05 -1.50053e-15)
(0.527471 7.13988e-05 -2.05823e-14)
(0.527207 6.75115e-05 1.48822e-15)
(0.526956 6.38229e-05 1.09449e-14)
(0.526719 6.0341e-05 0)
(0.526494 5.70747e-05 0)
(0.526281 5.40339e-05 9.34117e-15)
(0.526079 5.12303e-05 -9.34112e-15)
(0.525887 4.86776e-05 1.41058e-15)
(0.525705 4.63919e-05 1.40442e-15)
(0.52553 4.4392e-05 0)
(0.525362 4.27005e-05 0)
(0.5252 4.13439e-05 -1.81956e-14)
(0.525043 4.03531e-05 1.81956e-14)
(0.52489 3.97643e-05 0)
(0.524738 3.96201e-05 0)
(0.524586 3.99764e-05 0)
(0.524432 4.09076e-05 0)
(0.524274 4.24966e-05 0)
(0.524109 4.48362e-05 0)
(0.523935 4.80417e-05 0)
(0.523748 5.22541e-05 -2.66096e-15)
(0.523544 5.7646e-05 -2.64865e-15)
(0.523318 6.44293e-05 -4.6975e-15)
(0.523066 7.28674e-05 2.98121e-14)
(0.52278 8.32919e-05 -8.65223e-15)
(0.522452 9.61286e-05 -9.8713e-15)
(0.522073 0.000111939 8.491e-15)
(0.521629 0.00013149 -7.20355e-15)
(0.521107 0.000155874 0)
(0.520483 0.000186729 7.09562e-15)
(0.519732 0.000226642 -9.64035e-15)
(0.518812 0.000279939 1.26322e-15)
(0.517665 0.000354235 1.25718e-15)
(0.516199 0.000463583 0)
(0.514266 0.000635017 0)
(0.511611 0.00092244 -8.13641e-15)
(0.507772 0.00144052 8.13694e-15)
(0.501791 0.00247585 0)
(0.492029 0.00490998 0)
(0.47676 0.0110551 -6.10147e-15)
(0.449807 0.0213884 -1.1141e-15)
(0.414959 0.0228849 -1.39712e-14)
(0.372413 0.0387016 8.33373e-15)
(0.325731 0.0339344 0)
(0.2699 0.0110343 -3.12156e-16)
(0.236318 0.0160422 2.7837e-15)
(0.196378 0.0143027 -4.44398e-15)
(0.155351 0.0118463 -1.39592e-15)
(0.115328 0.00869158 -1.77491e-16)
(0.0817146 0.00513255 -1.11299e-15)
(0.118675 0.00938321 6.10867e-16)
(0 0 0)
(0 0 0)
(0 0 0)
(0 0 0)
(0 0 0)
(0 0 0)
(0 0 0)
(0 0 0)
(0 0 0)
(0 0 0)
(0 0 0)
(0 0 0)
(0 0 0)
(0 0 0)
(0 0 0)
(0 0 0)
(0 0 0)
(0 0 0)
(0 0 0)
(0 0 0)
(0 0 0)
(0 0 0)
(0 0 0)
(0 0 0)
(0 0 0)
(0 0 0)
(0 0 0)
(0 0 0)
(0 0 0)
(0 0 0)
(0 0 0)
(0 0 0)
(0 0 0)
(0 0 0)
(0 0 0)
(0 0 0)
(0 0 0)
(0 0 0)
(0 0 0)
(0 0 0)
(0 0 0)
(0 0 0)
(0 0 0)
(0 0 0)
(0 0 0)
(0 0 0)
(0 0 0)
(0 0 0)
(0 0 0)
(0 0 0)
(0 0 0)
(0 0 0)
(0 0 0)
(0 0 0)
(0 0 0)
(0 0 0)
(0 0 0)
(0 0 0)
(0 0 0)
(0 0 0)
(0 0 0)
(0 0 0)
(0 0 0)
(0 0 0)
(0 0 0)
(0 0 0)
(0 0 0)
(0 0 0)
(0 0 0)
(-3.33141e-07 -0.000494381 -4.32225e-16)
(-0.0017983 0.00348329 0)
(-0.0163095 0.0143712 0)
(-0.0423199 0.0241928 0)
(-0.0776712 0.0310661 0)
(-0.119092 0.0351603 7.1134e-15)
(-0.163778 0.0369343 6.74804e-15)
(-0.209321 0.0368852 1.41472e-15)
(-0.253818 0.0354649 1.04818e-15)
(-0.295829 0.033049 1.4698e-15)
(-0.334305 0.0299338 0)
(-0.368506 0.0263492 1.37527e-15)
(-0.397945 0.0224793 5.87712e-15)
(-0.422341 0.0184857 1.5158e-15)
(-0.441633 0.0145021 -1.51198e-15)
(-0.455841 0.0105012 -1.53712e-15)
(-0.464934 0.00643422 1.537e-15)
(-0.468742 0.00223643 6.9192e-15)
(-0.467249 -0.00185346 6.93237e-16)
(-0.460823 -0.00564553 -4.78627e-15)
(-0.44978 -0.00922016 8.6845e-15)
(-0.43435 -0.0126256 5.22172e-15)
(-0.414726 -0.0158604 -8.52829e-15)
(-0.391161 -0.0189014 8.26495e-15)
(-0.363928 -0.0217289 -7.0098e-15)
(-0.333312 -0.0243297 1.33313e-15)
(-0.29961 -0.0266952 -1.09371e-14)
(-0.263125 -0.0288199 4.77357e-15)
(-0.224164 -0.0307023 -1.34096e-15)
(-0.183034 -0.0323463 4.25046e-15)
(-0.140041 -0.0337476 -6.3113e-15)
(-0.0954886 -0.0349071 1.05985e-14)
(-0.0496778 -0.0358306 -9.3521e-18)
(-0.00289031 -0.0365198 0)
(0.0446317 -0.0369778 -3.6234e-15)
(0.0925997 -0.0372891 3.61923e-15)
(0.140741 -0.0373668 2.21558e-15)
(0.18886 -0.0372481 2.22164e-15)
(0.236732 -0.0369742 0)
(0.284154 -0.036565 0)
(0.330931 -0.0359967 0)
(0.376898 -0.0352785 5.9113e-15)
(0.421902 -0.0344376 -1.43511e-15)
(0.465806 -0.0335029 0)
(0.50849 -0.0324962 0)
(0.549852 -0.0314173 0)
(0.589804 -0.0302702 0)
(0.628275 -0.0290809 2.22558e-15)
(0.665209 -0.0278649 2.22208e-15)
(0.700562 -0.0266206 -4.443e-15)
(0.734305 -0.0253443 -4.43328e-15)
(0.766423 -0.0240467 0)
(0.796904 -0.0227613 0)
(0.825757 -0.021488 0)
(0.85299 -0.0202278 0)
(0.878626 -0.0189865 -1.43489e-14)
(0.902693 -0.0177698 1.43414e-14)
(0.925223 -0.016583 0)
(0.946255 -0.0154302 2.16057e-15)
(0.965834 -0.0143148 2.15266e-15)
(0.984007 -0.0132397 -7.04492e-15)
(1.00082 -0.012207 1.89389e-14)
(1.01634 -0.0112183 -1.61594e-14)
(1.03061 -0.0102748 0)
(1.04369 -0.0093772 9.04461e-15)
(1.05564 -0.00852573 -6.20188e-16)
(1.06651 -0.00772037 4.1894e-15)
(1.07636 -0.00696072 -1.36919e-14)
(1.08526 -0.00624616 2.05063e-14)
(1.09325 -0.00557581 -6.81589e-15)
(1.10039 -0.0049486 -6.75926e-15)
(1.10673 -0.00436331 6.75839e-15)
(1.11234 -0.00381857 6.70184e-15)
(1.11725 -0.00331291 -6.70118e-15)
(1.12152 -0.00284479 0)
(1.1252 -0.00241259 -6.61673e-15)
(1.12832 -0.00201467 1.3205e-14)
(1.13094 -0.00164937 -6.58837e-15)
(1.13309 -0.00131505 0)
(1.13482 -0.00101004 -6.50576e-15)
(1.13615 -0.000732555 1.29841e-14)
(1.13713 -0.000479657 -6.47843e-15)
(1.13778 -0.000247893 0)
(1.13814 -4.1569e-05 6.39806e-15)
(1.13823 0.000137204 -6.39805e-15)
(1.1381 0.000296907 0)
(1.13775 0.000440805 -3.84999e-15)
(1.13722 0.000568908 -3.8342e-15)
(1.13652 0.000681399 1.25355e-14)
(1.13567 0.000779208 -8.73261e-15)
(1.1347 0.000863455 -1.2434e-14)
(1.13361 0.00093525 8.66188e-15)
(1.13243 0.000995642 6.16695e-15)
(1.13117 0.00104561 -9.90898e-15)
(1.12985 0.00108607 -3.72685e-15)
(1.12847 0.00111788 0)
(1.12705 0.00114183 0)
(1.12559 0.00115867 1.20892e-14)
(1.12411 0.00116908 -2.17781e-14)
(1.12262 0.00117371 2.36736e-15)
(1.12111 0.00117314 -4.15351e-15)
(1.11961 0.00116792 1.37342e-14)
(1.11811 0.00115858 -1.18748e-14)
(1.11662 0.0011456 5.9257e-15)
(1.11515 0.00112944 0)
(1.1137 0.0011105 1.17105e-14)
(1.11227 0.00108915 -1.17109e-14)
(1.11086 0.00106574 0)
(1.10949 0.00104057 0)
(1.10814 0.00101392 -1.15254e-14)
(1.10683 0.000986052 1.15258e-14)
(1.10555 0.000957203 0)
(1.10431 0.000927581 1.13879e-14)
(1.10311 0.000897381 -4.59711e-17)
(1.10195 0.000866777 -4.52326e-14)
(1.10082 0.000835928 3.3891e-14)
(1.09973 0.000804976 0)
(1.09869 0.000774053 0)
(1.09768 0.000743276 -5.07905e-15)
(1.09671 0.000712754 -5.05841e-15)
(1.09578 0.000682583 0)
(1.09489 0.000652853 2.19593e-14)
(1.09404 0.000623644 -2.19598e-14)
(1.09322 0.00059503 0)
(1.09245 0.000567076 1.08445e-14)
(1.0917 0.000539846 -2.16442e-14)
(1.091 0.000513393 1.07997e-14)
(1.09032 0.00048777 0)
(1.08968 0.000463026 2.13292e-14)
(1.08907 0.000439205 -2.29471e-14)
(1.0885 0.000416353 -1.21855e-14)
(1.08795 0.000394513 4.50537e-17)
(1.08743 0.000373732 1.053e-14)
(1.08693 0.000354058 0)
(1.08646 0.000335544 -2.07903e-14)
(1.08602 0.000318249 2.95641e-14)
(1.0856 0.00030224 -1.19202e-14)
(1.0852 0.000287596 1.02605e-14)
(1.08481 0.000274407 -1.02605e-14)
(1.08445 0.00026278 0)
(1.0841 0.000252842 0)
(1.08376 0.000244741 -2.01618e-14)
(1.08343 0.000238651 2.01619e-14)
(1.08311 0.00023478 0)
(1.08279 0.000233373 0)
(1.08247 0.000234733 0)
(1.08215 0.000239252 0)
(1.08182 0.000247392 0)
(1.08149 0.000259685 0)
(1.08113 0.000276779 0)
(1.08075 0.000299469 0)
(1.08033 0.000328735 0)
(1.07988 0.000365786 -4.38213e-15)
(1.07937 0.000412143 5.18134e-15)
(1.07879 0.000469736 -4.4682e-17)
(1.07814 0.00054107 -9.49864e-15)
(1.07738 0.000629474 9.40965e-15)
(1.0765 0.000739505 -9.40981e-15)
(1.07545 0.000877626 0)
(1.07421 0.00105335 0)
(1.07271 0.00128127 0)
(1.07088 0.00158466 0)
(1.06861 0.00200203 0)
(1.06573 0.00259934 -1.38733e-15)
(1.062 0.00349283 -1.38096e-15)
(1.05703 0.00489141 0)
(1.05025 0.00717574 0)
(1.0407 0.0110643 0)
(1.02719 0.017982 0)
(1.0095 0.030095 2.70786e-15)
(0.987348 0.0459638 1.15713e-14)
(0.958409 0.055909 -2.655e-14)
(0.922572 0.0688663 8.8666e-15)
(0.88188 0.0812666 8.77253e-15)
(0.826382 0.084239 0)
(0.768932 0.0774741 0)
(0.70425 0.0675871 0)
(0.636666 0.0574556 0)
(0.567771 0.0458031 9.60479e-15)
(0.495784 0.0322875 -4.94861e-15)
(0.437335 0.0447269 0)
(0.344867 0.0376756 0)
(0.308627 0.019968 -4.47531e-15)
(0.261947 0.0177436 2.4864e-15)
(0.214786 0.0159363 -3.7537e-15)
(0.167837 0.0129463 1.5163e-15)
(0.122328 0.00922866 4.86181e-16)
(0.0877731 0.00552913 3.68047e-16)
(0.132422 -0.00376221 -2.24212e-19)
(0 0 0)
(0 0 0)
(0 0 0)
(0 0 0)
(0 0 0)
(0 0 0)
(0 0 0)
(0 0 0)
(0 0 0)
(0 0 0)
(0 0 0)
(0 0 0)
(0 0 0)
(0 0 0)
(0 0 0)
(0 0 0)
(0 0 0)
(0 0 0)
(0 0 0)
(0 0 0)
(0 0 0)
(0 0 0)
(0 0 0)
(0 0 0)
(0 0 0)
(0 0 0)
(0 0 0)
(0 0 0)
(0 0 0)
(0 0 0)
(0 0 0)
(0 0 0)
(0 0 0)
(0 0 0)
(0 0 0)
(0 0 0)
(0 0 0)
(0 0 0)
(0 0 0)
(0 0 0)
(0 0 0)
(0 0 0)
(0 0 0)
(0 0 0)
(0 0 0)
(0 0 0)
(0 0 0)
(0 0 0)
(0 0 0)
(0 0 0)
(0 0 0)
(0 0 0)
(0 0 0)
(0 0 0)
(0 0 0)
(0 0 0)
(0 0 0)
(0 0 0)
(0 0 0)
(0 0 0)
(0 0 0)
(-0.000404512 0.00175152 3.54691e-16)
(-0.00477094 0.0131844 0)
(-0.0287211 0.0356128 0)
(-0.0669086 0.0552091 0)
(-0.116357 0.0692426 -1.77967e-15)
(-0.173135 0.0777399 -5.32892e-15)
(-0.23378 0.0814234 -3.91606e-15)
(-0.295239 0.0812131 -2.14383e-15)
(-0.355029 0.0780034 1.7816e-15)
(-0.411235 0.0725709 4.30804e-15)
(-0.462431 0.0655493 0)
(-0.507601 0.0574424 -7.43677e-16)
(-0.546052 0.0486581 -2.88184e-15)
(-0.577369 0.0395608 -2.1427e-15)
(-0.601486 0.0304793 -1.50644e-15)
(-0.618467 0.0213515 -1.53087e-15)
(-0.628295 0.0120962 1.53094e-15)
(-0.630728 0.00258279 -3.77415e-15)
(-0.625692 -0.00666057 -3.80924e-15)
(-0.613825 -0.0151178 0)
(-0.595671 -0.0231818 -9.36513e-15)
(-0.571424 -0.0308751 -1.03551e-15)
(-0.541384 -0.0381558 -6.16463e-15)
(-0.505926 -0.0449763 9.8617e-15)
(-0.465447 -0.0513009 -2.59036e-15)
(-0.420356 -0.0571078 5.74273e-15)
(-0.371074 -0.0623827 0)
(-0.318024 -0.06711 -2.07601e-15)
(-0.261636 -0.071284 -2.09511e-15)
(-0.202337 -0.0749031 0)
(-0.140551 -0.0779795 -3.52107e-15)
(-0.0766873 -0.0805231 -7.8024e-16)
(-0.0111481 -0.0825435 -4.33776e-15)
(0.0556851 -0.0840492 3.59207e-15)
(0.123464 -0.085067 -1.07952e-14)
(0.191802 -0.0856903 7.19727e-15)
(0.260337 -0.0858557 0)
(0.328789 -0.0855965 0)
(0.396863 -0.0849668 0)
(0.464271 -0.0839988 0)
(0.530753 -0.0826997 4.42348e-15)
(0.596089 -0.0810948 4.4259e-15)
(0.660074 -0.0792246 0)
(0.722523 -0.0771319 0)
(0.783268 -0.0748525 7.28101e-15)
(0.842165 -0.0724085 -7.27155e-15)
(0.899102 -0.0698231 0)
(0.953982 -0.06713 -2.20637e-15)
(1.00672 -0.0643565 5.03271e-15)