# vtk DataFile Version 2.0
sampleSurface
ASCII
DATASET POLYDATA
POINTS 4338 double
-0.000152 0 0.001
-0.000152 0 -0.001
0 -0.00025 0.001
0 -0.00025 -0.001
-0.000456 0 -0.001
-0.000456 0 0.001
0 -0.0005 0.001
0 -0.0005 -0.001
0 -0.00075 0.001
0 -0.00075 -0.001
-0.00076 0 -0.001
-0.00076 0 0.001
0 -0.001 0.001
0 -0.001 -0.001
-0.001064 0 -0.001
-0.001064 0 0.001
0 -0.00125 0.001
0 -0.00125 -0.001
-0.001368 0 -0.001
-0.001368 0 0.001
0 -0.0015 0.001
0 -0.0015 -0.001
-0.001672 0 -0.001
-0.001672 0 0.001
0 -0.00175 0.001
0 -0.00175 -0.001
-0.001976 0 -0.001
-0.001976 0 0.001
0 -0.002 0.001
0 -0.002 -0.001
0 -0.00225 0.001
0 -0.00225 -0.001
-0.00228 0 -0.001
-0.00228 0 0.001
0 -0.0025 0.001
0 -0.0025 -0.001
-0.002584 0 -0.001
-0.002584 0 0.001
0 -0.00275 0.001
0 -0.00275 -0.001
-0.002888 0 -0.001
-0.002888 0 0.001
0 -0.003 0.001
0 -0.003 -0.001
-0.003192 0 -0.001
-0.003192 0 0.001
0 -0.00325 0.001
0 -0.00325 -0.001
-0.003496 0 -0.001
-0.003496 0 0.001
0 -0.0035 0.001
0 -0.0035 -0.001
0 -0.00375 0.001
0 -0.00375 -0.001
-0.0038 0 -0.001
-0.0038 0 0.001
0 -0.004 0.001
0 -0.004 -0.001
-0.004104 0 -0.001
-0.004104 0 0.001
0 -0.00425 0.001
0 -0.00425 -0.001
-0.004408 0 -0.001
-0.004408 0 0.001
0 -0.0045 0.001
0 -0.0045 -0.001
-0.004712 0 -0.001
-0.004712 0 0.001
0 -0.00475 0.001
0 -0.00475 -0.001
0 -0.005 0.001
0 -0.005 -0.001
-0.005016 0 -0.001
-0.005016 0 0.001
0 -0.00525 0.001
0 -0.00525 -0.001
-0.00532 0 -0.001
-0.00532 0 0.001
0 -0.0055 0.001
0 -0.0055 -0.001
-0.005624 0 -0.001
-0.005624 0 0.001
0 -0.00575 0.001
0 -0.00575 -0.001
-0.005928 0 -0.001
-0.005928 0 0.001
0 -0.006 0.001
0 -0.006 -0.001
-0.006232 0 -0.001
-0.006232 0 0.001
0 -0.00625 0.001
0 -0.00625 -0.001
0 -0.0065 0.001
0 -0.0065 -0.001
-0.006536 0 -0.001
-0.006536 0 0.001
0 -0.00675 0.001
0 -0.00675 -0.001
-0.00684 0 -0.001
-0.00684 0 0.001
0 -0.007 0.001
0 -0.007 -0.001
-0.007144 0 -0.001
-0.007144 0 0.001
0 -0.00725 0.001
0 -0.00725 -0.001
-0.007448 0 -0.001
-0.007448 0 0.001
0 -0.0075 0.001
0 -0.0075 -0.001
0 -0.00775 0.001
0 -0.00775 -0.001
-0.007752 0 -0.001
-0.007752 0 0.001
0 -0.008 0.001
0 -0.008 -0.001
-0.008056 0 -0.001
-0.008056 0 0.001
0 -0.00825 0.001
0 -0.00825 -0.001
-0.00836 0 -0.001
-0.00836 0 0.001
0 -0.0085 0.001
0 -0.0085 -0.001
-0.008664 0 -0.001
-0.008664 0 0.001
0 -0.00875 0.001
0 -0.00875 -0.001
-0.008968 0 -0.001
-0.008968 0 0.001
0 -0.009 0.001
0 -0.009 -0.001
0 -0.00925 0.001
0 -0.00925 -0.001
-0.009272 0 -0.001
-0.009272 0 0.001
0 -0.0095 0.001
0 -0.0095 -0.001
-0.009576 0 -0.001
-0.009576 0 0.001
0 -0.00975 0.001
0 -0.00975 -0.001
-0.00988 0 -0.001
-0.00988 0 0.001
0 -0.01 0.001
0 -0.01 -0.001
-0.010184 0 -0.001
-0.010184 0 0.001
0 -0.01025 0.001
0 -0.01025 -0.001
-0.010488 0 -0.001
-0.010488 0 0.001
0 -0.0105 0.001
0 -0.0105 -0.001
0 -0.01075 0.001
0 -0.01075 -0.001
-0.010792 -5.78241e-19 -0.001
-0.010792 -5.78241e-19 0.001
0 -0.011 0.001
0 -0.011 -0.001
-0.011096 0 -0.001
-0.011096 0 0.001
0 -0.01125 0.001
0 -0.01125 -0.001
-0.0114 0 -0.001
-0.0114 0 0.001
0 -0.0115 0.001
0 -0.0115 -0.001
-0.011704 0 -0.001
-0.011704 0 0.001
0 -0.01175 0.001
0 -0.01175 -0.001
0 -0.012 0.001
0 -0.012 -0.001
-0.012008 0 -0.001
-0.012008 0 0.001
0 -0.01225 0.001
0 -0.01225 -0.001
-0.012312 0 -0.001
-0.012312 0 0.001
0 -0.0125 0.001
0 -0.0125 -0.001
-0.012616 0 -0.001
-0.012616 0 0.001
0 -0.01275 0.001
0 -0.01275 -0.001
-0.01292 0 -0.001
-0.01292 0 0.001
0 -0.013 0.001
0 -0.013 -0.001
-0.013224 0 -0.001
-0.013224 0 0.001
0 -0.01325 0.001
0 -0.01325 -0.001
0 -0.0135 0.001
0 -0.0135 -0.001
-0.013528 0 -0.001
-0.013528 0 0.001
0 -0.01375 0.001
0 -0.01375 -0.001
-0.013832 0 -0.001
-0.013832 0 0.001
0 -0.014 0.001
0 -0.014 -0.001
-0.014136 0 -0.001
-0.014136 0 0.001
0 -0.01425 0.001
0 -0.01425 -0.001
-0.01444 0 -0.001
-0.01444 0 0.001
0 -0.0145 0.001
0 -0.0145 -0.001
-0.014744 0 -0.001
-0.014744 0 0.001
0 -0.01475 0.001
0 -0.01475 -0.001
0 -0.015 0.001
0 -0.015 -0.001
-0.015048 0 -0.001
-0.015048 0 0.001
0 -0.01525 0.001
0 -0.01525 -0.001
-0.015352 0 -0.001
-0.015352 0 0.001
0 -0.0155 0.001
0 -0.0155 -0.001
-0.015656 0 -0.001
-0.015656 0 0.001
0 -0.01575 0.001
0 -0.01575 -0.001
-0.01596 0 -0.001
-0.01596 0 0.001
0 -0.016 0.001
0 -0.016 -0.001
0 -0.01625 0.001
0 -0.01625 -0.001
-0.016264 0 -0.001
-0.016264 0 0.001
0 -0.0165 0.001
0 -0.0165 -0.001
-0.016568 0 -0.001
-0.016568 0 0.001
0 -0.01675 0.001
0 -0.01675 -0.001
-0.016872 0 -0.001
-0.016872 0 0.001
0 -0.017 0.001
0 -0.017 -0.001
-0.017176 0 -0.001
-0.017176 0 0.001
0 -0.01725 0.001
0 -0.01725 -0.001
-0.01748 0 -0.001
-0.01748 0 0.001
0 -0.0175 0.001
0 -0.0175 -0.001
0 -0.01775 0.001
0 -0.01775 -0.001
-0.017784 0 -0.001
-0.017784 0 0.001
0 -0.018 0.001
0 -0.018 -0.001
-0.018088 0 -0.001
-0.018088 0 0.001
0 -0.01825 0.001
0 -0.01825 -0.001
-0.018392 0 -0.001
-0.018392 0 0.001
0 -0.0185 0.001
0 -0.0185 -0.001
-0.018696 0 -0.001
-0.018696 0 0.001
0 -0.01875 0.001
0 -0.01875 -0.001
0 -0.019 0.001
0 -0.019 -0.001
-0.019 0 -0.001
-0.019 0 0.001
0 -0.01925 0.001
0 -0.01925 -0.001
0 -0.0195 0.001
0 -0.0195 -0.001
0 -0.01975 0.001
0 -0.01975 -0.001
0 -0.02 0.001
0 -0.02 -0.001
0 -0.02025 0.001
0 -0.02025 -0.001
0 -0.0205 0.001
0 -0.0205 -0.001
0 -0.02075 0.001
0 -0.02075 -0.001
0 -0.021 0.001
0 -0.021 -0.001
0 -0.02125 0.001
0 -0.02125 -0.001
0 -0.0215 0.001
0 -0.0215 -0.001
0 -0.02175 0.001
0 -0.02175 -0.001
0 -0.022 0.001
0 -0.022 -0.001
0 -0.02225 0.001
0 -0.02225 -0.001
0 -0.0225 0.001
0 -0.0225 -0.001
0 -0.02275 0.001
0 -0.02275 -0.001
0 -0.023 0.001
0 -0.023 -0.001
0 -0.02325 0.001
0 -0.02325 -0.001
0 -0.0235 0.001
0 -0.0235 -0.001
0 -0.02375 0.001
0 -0.02375 -0.001
0 -0.024 0.001
0 -0.024 -0.001
0 -0.02425 0.001
0 -0.02425 -0.001
0 -0.0245 0.001
0 -0.0245 -0.001
0 -0.02475 0.001
0 -0.02475 -0.001
0 -0.025 0.001
0 -0.025 -0.001
1.00662e-06 -0.02525 0.001
1.00662e-06 -0.02525 -0.001
0.000152 -0.0254 -0.001
0.000152 -0.0254 0.001
-0.000152 0.0254 0.001
-0.000152 0.0254 -0.001
0.000152 0.0254 0.001
0.000152 0.0254 -0.001
0.000456 -0.0254 0.001
0.000456 -0.0254 -0.001
-0.000456 0.0254 0.001
-0.000456 0.0254 -0.001
0.000456 0.0254 0.001
0.000456 0.0254 -0.001
0.00076 -0.0254 0.001
0.00076 -0.0254 -0.001
-0.00076 0.0254 0.001
-0.00076 0.0254 -0.001
0.00076 0.0254 0.001
0.00076 0.0254 -0.001
0.001064 -0.0254 0.001
0.001064 -0.0254 -0.001
-0.001064 0.0254 0.001
-0.001064 0.0254 -0.001
0.001064 0.0254 0.001
0.001064 0.0254 -0.001
0.001368 -0.0254 0.001
0.001368 -0.0254 -0.001
-0.001368 0.0254 0.001
-0.001368 0.0254 -0.001
0.001368 0.0254 0.001
0.001368 0.0254 -0.001
0.001672 -0.0254 0.001
0.001672 -0.0254 -0.001
-0.001672 0.0254 0.001
-0.001672 0.0254 -0.001
0.001672 0.0254 0.001
0.001672 0.0254 -0.001
0.001976 -0.0254 0.001
0.001976 -0.0254 -0.001
-0.001976 0.0254 0.001
-0.001976 0.0254 -0.001
0.001976 0.0254 0.001
0.001976 0.0254 -0.001
0.00228 -0.0254 0.001
0.00228 -0.0254 -0.001
-0.00228 0.0254 0.001
-0.00228 0.0254 -0.001
0.00228 0.0254 0.001
0.00228 0.0254 -0.001
0.002584 -0.0254 0.001
0.002584 -0.0254 -0.001
-0.002584 0.0254 0.001
-0.002584 0.0254 -0.001
0.002584 0.0254 0.001
0.002584 0.0254 -0.001
0.002888 -0.0254 0.001
0.002888 -0.0254 -0.001
-0.002888 0.0254 0.001
-0.002888 0.0254 -0.001
0.002888 0.0254 0.001
0.002888 0.0254 -0.001
0.003192 -0.0254 0.001
0.003192 -0.0254 -0.001
-0.003192 0.0254 0.001
-0.003192 0.0254 -0.001
0.003192 0.0254 0.001
0.003192 0.0254 -0.001
0.003496 -0.0254 0.001
0.003496 -0.0254 -0.001
-0.003496 0.0254 0.001
-0.003496 0.0254 -0.001
0.003496 0.0254 0.001
0.003496 0.0254 -0.001
0.0038 -0.0254 0.001
0.0038 -0.0254 -0.001
-0.0038 0.0254 0.001
-0.0038 0.0254 -0.001
0.0038 0.0254 0.001
0.0038 0.0254 -0.001
0.004104 -0.0254 0.001
0.004104 -0.0254 -0.001
-0.004104 0.0254 0.001
-0.004104 0.0254 -0.001
0.004104 0.0254 0.001
0.004104 0.0254 -0.001
0.004408 -0.0254 0.001
0.004408 -0.0254 -0.001
-0.004408 0.0254 0.001
-0.004408 0.0254 -0.001
0.004408 0.0254 0.001
0.004408 0.0254 -0.001
0.004712 -0.0254 0.001
0.004712 -0.0254 -0.001
-0.004712 0.0254 0.001
-0.004712 0.0254 -0.001
0.004712 0.0254 0.001
0.004712 0.0254 -0.001
0.005016 -0.0254 0.001
0.005016 -0.0254 -0.001
-0.005016 0.0254 0.001
-0.005016 0.0254 -0.001
0.005016 0.0254 0.001
0.005016 0.0254 -0.001
0.00532 -0.0254 0.001
0.00532 -0.0254 -0.001
-0.00532 0.0254 0.001
-0.00532 0.0254 -0.001
0.00532 0.0254 0.001
0.00532 0.0254 -0.001
0.005624 -0.0254 0.001
0.005624 -0.0254 -0.001
-0.005624 0.0254 0.001
-0.005624 0.0254 -0.001
0.005624 0.0254 0.001
0.005624 0.0254 -0.001
0.005928 -0.0254 0.001
0.005928 -0.0254 -0.001
-0.005928 0.0254 0.001
-0.005928 0.0254 -0.001
0.005928 0.0254 0.001
0.005928 0.0254 -0.001
0.006232 -0.0254 0.001
0.006232 -0.0254 -0.001
-0.006232 0.0254 0.001
-0.006232 0.0254 -0.001
0.006232 0.0254 0.001
0.006232 0.0254 -0.001
0.006536 -0.0254 0.001
0.006536 -0.0254 -0.001
-0.006536 0.0254 0.001
-0.006536 0.0254 -0.001
0.006536 0.0254 0.001
0.006536 0.0254 -0.001
0.00684 -0.0254 0.001
0.00684 -0.0254 -0.001
-0.00684 0.0254 0.001
-0.00684 0.0254 -0.001
0.00684 0.0254 0.001
0.00684 0.0254 -0.001
0.007144 -0.0254 0.001
0.007144 -0.0254 -0.001
-0.007144 0.0254 0.001
-0.007144 0.0254 -0.001
0.007144 0.0254 0.001
0.007144 0.0254 -0.001
0.007448 -0.0254 0.001
0.007448 -0.0254 -0.001
-0.007448 0.0254 0.001
-0.007448 0.0254 -0.001
0.007448 0.0254 0.001
0.007448 0.0254 -0.001
0.007752 -0.0254 0.001
0.007752 -0.0254 -0.001
-0.007752 0.0254 0.001
-0.007752 0.0254 -0.001
0.007752 0.0254 0.001
0.007752 0.0254 -0.001
0.008056 -0.0254 0.001
0.008056 -0.0254 -0.001
-0.008056 0.0254 0.001
-0.008056 0.0254 -0.001
0.008056 0.0254 0.001
0.008056 0.0254 -0.001
0.00836 -0.0254 0.001
0.00836 -0.0254 -0.001
-0.00836 0.0254 0.001
-0.00836 0.0254 -0.001
0.00836 0.0254 0.001
0.00836 0.0254 -0.001
0.008664 -0.0254 0.001
0.008664 -0.0254 -0.001
-0.008664 0.0254 0.001
-0.008664 0.0254 -0.001
0.008664 0.0254 0.001
0.008664 0.0254 -0.001
0.008968 -0.0254 0.001
0.008968 -0.0254 -0.001
-0.008968 0.0254 0.001
-0.008968 0.0254 -0.001
0.008968 0.0254 0.001
0.008968 0.0254 -0.001
0.009272 -0.0254 0.001
0.009272 -0.0254 -0.001
[...]
CELL_DATA 2113
FIELD attributes 1
aU 1 2113 double
6714.57 1494.01 1441.99 1445.01 1448.12 1451.02 1453.2 1454.19 1454.2 1453.67
1451.43 1447.55 1444.92 1448.02 1454.78 1461.3 1467.33 1472.67 1477.24 1480.96
1483.84 1485.89 1487.15 1487.71 1487.7 1487.61 1486.99 1485.86 1484.33 1482.46
1480.33 1478.04 1475.58 1473.05 1470.63 1468.33 1466.16 1464.2 1462.48 1461.06
1459.98 1459.26 1459.06 1459.61 1460.64 1462.15 1464.14 1466.59 1469.48 1472.75
1476.28 1480 1483.79 1487.53 1491.17 1494.51 1497.35 1499.53 1500.99 1501.69
1501.79 1501.83 1501.33 1500.33 1498.9 1497.15 1495.23 1493.22 1491.19 1489.17
1487.15 1485.14 1483.09 1480.96 1478.69 1476.21 1473.45 1470.4 1466.99 1463.15
1458.86 1454.1 1449.04 1450.07 1457.52 1465.52 1474.09 1483.2 1492.85 1503.03
1513.72 1524.91 1536.6 1548.76 1561.37 1574.44 1587.93 1601.86 1616.21 1630.97
1646.04 1661.42 1677.09 1693.06 1709.3 1725.8 1742.54 1759.52 1776.72 1794.14
1811.77 1829.6 1847.64 1865.88 1884.31 1902.94 1921.77 1940.78 1959.99 1979.38
1998.96 2018.72 2038.65 2058.75 2079.01 2099.42 2119.97 2140.68 2161.58 2182.65
2203.91 2225.36 2246.99 2268.82 2290.83 2313.04 2335.43 2358.01 2380.79 2403.74
2426.88 2450.2 2473.7 2497.37 2521.22 2545.26 2569.5 2593.93 2618.56 2643.39
2668.42 2693.65 2719.07 2744.67 2770.44 2796.36 2822.39 2848.51 2874.75 2901.1
2927.6 2954.23 2981 3007.9 3034.92 3062.06 3089.32 3116.69 3144.16 3171.74
3199.42 3227.19 3255.05 3282.99 3311.01 3339.11 3367.27 3395.49 3423.77 3452.08
3480.43 3508.8 3537.19 3565.58 3594 3622.48 3650.99 3679.79 3708.49 3736.99
3765.43 3793.75 3822.09 3850.42 3878.73 3907 3935.22 3963.38 3991.47 4019.5
4047.46 4075.35 4103.17 4130.89 4158.52 4186.04 4213.46 4240.75 4267.92 4294.97
4321.89 4348.66 4375.3 4401.78 4428.11 4454.28 4480.28 4506.1 4531.75 4557.22
4582.5 4607.59 4632.49 4657.19 4681.7 4706 4730.08 4753.96 4777.61 4801.04
4824.25 4847.22 4869.95 4892.45 4914.71 4936.71 4958.47 4979.97 5001.22 5022.2
5042.92 5063.37 5083.57 5103.5 5123.17 5142.58 5161.72 5180.59 5199.18 5217.49
5235.5 5253.22 5270.65 5287.79 5304.64 5321.19 5337.46 5353.42 5369.1 5384.47
5399.54 5414.3 5428.75 5442.88 5456.69 5470.17 5483.34 5496.21 5508.8 5521.11
5533.14 5544.85 5556.23 5567.29 5578.03 5588.47 5598.63 5608.49 5618.05 5627.32
5636.3 5644.98 5653.35 5661.4 5669.16 5676.61 5683.76 5690.62 5697.2 5703.49
5709.49 5715.21 5720.63 5725.76 5730.59 5735.13 5739.36 5743.29 5746.92 5750.25
5753.28 5756 5758.4 5760.49 5762.43 5764.15 5765.59 5766.76 5767.66 5768.29
5768.65 5768.75 5768.57 5768.14 5767.44 5766.49 5765.28 5763.81 5762.09 5760.12
5757.9 5755.44 5752.74 5749.81 5746.65 5743.25 5739.61 5735.73 5731.6 5727.24
5722.65 5717.83 5712.79 5707.54 5702.06 5696.36 5690.46 5684.33 5678 5671.46
5664.72 5657.77 5650.62 5643.27 5635.72 5627.98 5620.04 5611.91 5603.59 5595.09
5586.4 5577.53 5568.47 5559.24 5549.84 5540.25 5530.5 5520.58 5510.49 5500.23
5489.81 5479.23 5468.49 5457.59 5446.54 5435.33 5423.98 5412.47 5400.82 5389.02
5377.08 5365 5352.78 5340.43 5327.94 5315.32 5302.56 5289.68 5276.67 5263.52
5250.24 5236.83 5223.32 5209.7 5195.96 5182.11 5168.15 5154.08 5139.89 5125.6
5111.2 5096.69 5082.09 5067.38 5052.58 5037.68 5022.68 5007.59 4992.42 4977.15
4961.79 4946.35 4930.83 4915.22 4899.53 4883.76 4867.92 4852 4836.01 4819.94
4803.81 4787.6 4771.33 4754.99 4738.59 4722.12 4705.6 4689.01 4672.36 4655.66
4638.9 4622.09 4605.23 4588.31 4571.34 4554.33 4537.26 4520.15 4502.99 4485.79
4468.54 4451.26 4433.95 4416.62 4399.27 4381.89 4364.46 4346.97 4329.45 4311.9
4294.33 4276.74 4259.12 4241.49 4223.83 4206.15 4188.45 4170.74 4153.01 4135.26
4117.5 4099.72 4081.94 4064.14 4046.33 4028.51 4010.68 3992.85 3975 3957.16
3939.31 3921.45 3903.6 3885.74 3867.88 3850.02 3832.16 3814.31 3796.46 3778.61
3760.77 3742.94 3725.11 3707.29 3689.48 3671.68 3653.89 3636.11 3618.32 3600.54
3582.78 3565.04 3547.3 3529.58 3511.87 3494.18 3476.5 3458.84 3441.2 3423.58
3405.98 3388.4 3370.84 3353.3 3335.78 3318.29 3300.82 3283.37 3265.95 3248.56
3231.19 3213.84 3196.53 3179.24 3161.97 3144.74 3127.54 3110.36 3093.22 3076.1
3059.01 3041.96 3024.94 3007.94 2990.98 2974.06 2957.16 2940.3 2923.47 2906.68
2889.92 2873.18 2856.48 2839.81 2823.18 2806.59 2790.03 2773.5 2756.99 2740.51
2724.07 2707.72 2691.44 2675.15 2658.87 2642.64 2626.45 2610.3 2594.2 2578.13
2562.09 2546.09 2530.12 2514.19 2498.31 2482.49 2466.73 2450.98 2435.25 2419.6
2404 2388.43 2372.87 2357.4 2342.05 2326.71 2311.37 2296.03 2280.74 2265.5
2250.29 2235.13 2220.02 2204.94 2189.91 2174.93 2159.99 2145.09 2130.18 2115.26
2100.37 2085.57 2070.88 2056.2 2041.56 2026.94 2012.36 1997.82 1983.31 1978.21
1986.85 1999.8 2012.71 2025.59 2038.44 2051.25 2064.03 2076.77 2089.48 2102.16
2114.81 2127.42 2140.01 2152.55 2165.07 2177.56 2190.01 2202.43 2214.82 2227.18
2239.51 2251.8 2264.07 2276.3 2288.51 2300.68 2312.82 2324.93 2337.01 2349.06
2361.08 2373.06 2385.02 2396.94 2408.83 2420.69 2432.52 2444.32 2456.08 2467.81
2479.51 2491.17 2502.8 2514.4 2525.95 2537.48 2548.96 2560.41 2571.81 2583.18
2594.5 2605.78 2617.02 2628.2 2639.34 2650.43 2661.46 2672.43 2683.34 2694.19
2704.97 2715.68 2726.31 2736.86 2747.31 2757.67 2767.92 2778.05 2788.06 2797.93
2807.64 2817.19 2826.54 2835.68 2844.59 2853.22 2861.55 2869.53 2877.11 2884.23
2890.81 2896.75 2901.95 2906.27 2909.51 2911.45 2911.8 2910.25 2907.73 2902.32
2893.68 2881 2862.95 2837.95 2803.77 2757.07 2692.34 2599.09 2762.71 3489.17
5404.06 12947.4 91692.1 1550.38 2821.12 2942.78 3059.91 3298.49 3985.88 6134.44
15954.8 136200 1477.31 3043.9 3089.98 3193.73 3472.61 4277.79 6879.67 20119
214945 1479.94 3523.94 3522.48 3524.16 3569.26 3826.54 4699.86 7811.94 26111.6
1482.44 3582.58 3756.65 3855.93 3912.05 4178.83 5147.83 8948.29 35597.7 1484.29
3815.47 3933.72 3969.51 4021.69 4330.48 5508.06 10307.5 51131.1 1485.31 4044.13
4081.25 4051.61 4104.71 4483.1 5917.5 12054.8 73943 1485.55 4242.93 4216.68
4180.25 4235.72 4691.47 6427.43 14425.3 104771 1485.55 4417.02 4343.55 4295.76
4375.91 4926.27 7040.06 17696.1 159549 1485.2 4591.5 4465.51 4405.29 4518.83
5190.55 7785.42 22337.6 260665 1484.43 5035.98 4971.57 4871.76 4802.15 4914.72
5670.43 8814.21 29280 1483.42 5142.81 5239.44 5254.62 5202.74 5334.07 6189.57
10066 40356 1482.25 5423.29 5445.81 5365.35 5296.61 5456.38 6519.94 11484.6
58789.1 1480.93 5653.24 5608.3 5463.3 5352.05 5573.69 6906.46 13385.1 83194
1479.42 5824.68 5698.48 5543.03 5444.29 5754.17 7416.18 16003.2 120487 1477.66
6001.45 5810.7 5635.67 5564.37 5978.75 8047.24 19646.3 183443 1476.68 6448.71
6285.3 6112.14 5932.55 5877.14 6386.34 8929.64 24993.1 324728 1478.21 6681.77
6560.15 6353.1 6151.71 6114.03 6747.3 9927.89 32967.8 1481.54 6774.91 6790.87
6695.4 6554 6539.59 7286.53 11256.7 45858.1 1485.34 7060.03 7000.3 6798.69
6594.11 6618.15 7587.86 12775 67762.2 1489.62 7257.45 7111.77 6888.46 6649.94
6738.08 7982.03 14839.7 93893.3 1494.34 7424.6 7201.78 6938.13 6699.17 6874.98
8475.54 17702.1 139041 1499.45 7595.21 7288.99 6994.62 6784.2 7075.51 9112.62
21793 219028 1504.89 7997.21 7766.24 7482.33 7180.25 7000.93 7418.54 9996.55
27894.9 1510.61 8068.37 8042.23 7946.15 7731.87 7607.19 8119.22 11308.4 37312.1
1516.55 8479.75 8395.8 8193.26 7931.15 7790.8 8444.03 12564.4 52627.1 1522.73
8733.42 8597.23 8263.86 7919.09 7816.54 8713.16 14194.3 75848.3 1529.34 8921.07
8690.52 8376.66 8017.54 7984.95 9164.89 16489.2 106985 1535.86 9118.01 8798.58
8431.67 8059.98 8112.49 9668.64 19639.5 162050 1542.15 9318.4 8900.84 8494.12
8150.54 8324.02 10336.9 24205.3 263715 1548.14 9732.12 9446.39 9064.15 8645.23
8335.59 8647.32 11248.2 31069.7 1553.93 9891.47 9771.44 9531.64 9213.85 8958.51
9391.62 12691.5 42339.9 1559.53 10423.9 10292.2 9945.29 9551.46 9306.73 9916.12
14271.4 61502.1 1564.84 11011.5 10900.9 10641.8 10222 1569.78 1574.37 1578.57
1582.35 1585.69 1588.57 1590.99 1592.97 1594.56 1595.77 1596.49 1596.84 1596.93
1596.92 1596.56 1595.88 1594.93 1593.66 1592.07 1590.16 1587.97 1585.51 1582.79
1579.83 1576.64 1573.21 1569.54 1565.63 1561.51 1557.18 1552.65 1547.89 1542.93
1537.82 1532.52 1526.99 1521.25 1515.31 1509.16 1502.79 1496.2 1489.36 1485.22
1488.49 1496.45 1504.69 1513.21 1522.04 1531.2 1540.7 1550.55 1560.77 1571.36
1582.32 1593.71 1605.63 1618.25 1631.92 1647.22 1665.08 1687.14 1716.94 1762.93
1845.04 2010.87 2424.04 3360.03 2088.74 9750.75 9354.56 8844.07 8325.37 9516.77
9210.63 8666.15 8172.15 7987.68 8737.56 13319.4 60801.4 9234.21 8931.34 8459.5
8009.35 7797.83 8369.13 11878.3 41814.9 9227.6 8766.58 8214.63 7699.07 7427.78
7854.13 10617.2 30661 8774.85 8149.73 7605.72 7288.45 7575.86 9749.1 23845.7
263272 8669.67 8118.76 7596.37 7243.33 7408.87 9110.5 19280.8 161789 8582.59
8111.26 7622.93 7243.7 7302.18 8621.45 16132.1 106801 8444.81 8091.6 7637.94
7238.7 7206.23 8218.84 13858.4 75703.3 8294.58 8020.9 7546.03 7144.97 7043.23
7831.06 12142.8 52405.6 8049.05 7786.62 7405.25 7055.66 6932.11 7548.4 10899.3
37099.4 8111.57 7661.51 7170.14 6741.14 6562.13 7046.52 9732.05 27742.7 7694.4
7142.04 6682.84 6450.62 6796.25 8922.51 21721.4 218839 7659.24 7160.98 6697.96
6417.79 6641.55 8319.97 17643.7 139110 7618.96 7187.81 6746.67 6435.15 6552.36
7866.18 14814.2 93982.4 7498.6 7202.02 6797.98 6466.95 6494.21 7514.39 12777.7
67870.2 7341.57 7098.04 6684.42 6358.73 6330.78 7145.32 11220.4 45915.4 7360.02
6973.76 6532.88 6181.56 6105.84 6759.23 9984.7 33068.9 7368.83 6924.62 6475.96
6101.44 5972.54 6474.83 9039.68 25135.1 324663 6994.07 6500.52 6096.52 5909.45
6277.26 8318.37 19889.3 183484 7013.74 6567.78 6154.37 5917.46 6162.61 7781.27
16316.1 120878 7017.11 6652.92 6255.63 5981.24 6115.78 7382.37 13781.1 83599.4
6949.86 6705.14 6322.42 6025.65 6071.29 7062.22 11948.9 59171.5 6816.33 6606.98
6268.16 5997.89 5993.99 6783.68 10584.9 40786 6909.33 6539.04 6131.77 5809.11
5750.39 6385.6 9407.49 29742.9 6668.4 6185.26 5817.6 5693.05 6172.25 8575.26
22933.2 260998 6747.81 6312.47 5930.5 5742.07 6077.54 7979.11 18403.6 160372
6828.58 6463.67 6101.03 5865.18 6069.02 7553.2 15267 105578 6870.01 6628.34
6298.78 6025.23 6111.82 7254.3 13063.5 74754.1 6849.06 6690.25 6376.65 6110.45
6119.4 7009.93 11466.6 51953.9 6686.32 6593.21 6375.58 6152.81 6124.75 6817.84
10264.7 36520.3 6765.08 6501.74 6180.81 5888.73 5815.5 6383.61 9147.54 27083.6
6431.07 6132.56 5880.1 5787.22 6222.98 8416.47 21209.7 215693 5829.93 5706.37
5583.99 5568.04 5972.67 7780.02 17165 137400 35722.4 34407 33452 32608.4
31792.1 30979.9 30170.8 29363 28556.5 27750.8 26945.5 26139.9 25332.8 24521.7
23702 22874.3 22044.6 21216.4 20392.2 19575 18771.4 17993.8 17254.7 16558.4
15906.1 15297.6 14732.5 14210.1 13729.2 13288.4 12886.2 12521 12191.1 11894.9
11630.5 11396.2 11190.4 11011.5 10857.8 10727.8 10619.8 10532.9 10466 10418.4
10389.2 10388.5 10424.7 10482.7 10562.5 10658.6 10765.6 10880.3 10998.8 11118.3
11237.1 11354.2 11468.6 11580 11688.1 11792.5 11893.2 11990.1 12083.5 12172.6
12257 12336.4 12410 12478 12540.1 12597.4 12650.4 12699.5 12744.2 12784.1
12819 12848.9 12873.9 12894.3 12910 12921.3 12928.3 12932.1 12934.9 12934.1
12929.8 12922.2 12911.3 12897.3 12880.3 12860.6 12838.2 12813.5 12786.7 12758
12727.7 12696 12663.2 12629.4 12594.8 12559.7 12524.3 12488.6 12452.8 12417.1
12381.5 12346.2 12311.3 12276.8 12242.9 12209.5 12176.8 12144.8 12113.5 12082.9
12053 12023.9 11995.5 11967.9 11941 11914.9 11889.5 11864.9 11841 11817.9
11795.6 11774 11753.3 11733.3 11714.1 11695.8 11678.3 11662.1 11647 11633.3
11620.8 11609.7 11599.8 11591 11583.4 11576.7 11570.9 11565.8 11561.3 11557.3
11553.7 11550.3 11547 11543.7 11540.4 11536.9 11533.2 11529.2 11524.9 11520.3
11515.3 11509.9 11504.1 11497.9 11491.3 11484.4 11477 11469.2 11461.1 11452.6
11443.8 11434.6 11425.2 11415.4 11405.4 11395.2 11384.7 11374 11363.1 11352
11340.8 11329.4 11317.9 11306.3 11294.5 11282.6 11270.7 11258.6 11246.4 11234.2
11221.9 11209.6 11197.2 11184.7 11172.2 11159.7 11147.1 11134.5 11121.8 11109.1
11096.5 11083.8 11071.1 11058.5 11045.8 11033 11020.2 11007.3 10994.6 10981.8
10969 10956.3 10943.5 10930.8 10918 10905.2 10892.4 10879.6 10866.8 10854
10841.2 10828.3 10815.5 10802.6 10789.8 10776.9 10764 10751.1 10738.2 10725.2
10712.3 10699.3 10686.3 10673.3 10660.3 10647.2 10634.1 10621 10607.9 10594.7
10581.6 10568.3 10555.1 10541.8 10528.5 10515.2 10501.9 10488.5 10475.1 10461.6
10448.1 10434.6 10421 10407.4 10393.8 10380.1 10366.4 10352.7 10338.9 10325
10311.2 10297.3 10283.3 10269.3 10255.3 10241.2 10227.1 10212.9 10198.7 10184.4
10170.1 10155.8 10141.4 10126.9 10112.5 10097.9 10083.3 10068.7 10054 10039.3
10024.6 10009.7 9994.88 9979.98 9965.03 9950.03 9934.99 9919.91 9904.77 9889.59
9874.37 9859.1 9843.79 9828.43 9813.02 9797.57 9782.08 9766.54 9750.95 9735.32
9719.64 9703.92 9688.15 9672.33 9656.47 9640.57 9624.62 9608.62 9592.59 9576.51
9560.39 9544.23 9528.02 9511.78 9495.49 9479.17 9462.8 9446.4 9429.95 9413.47
9396.95 9380.38 9363.77 9347.12 9330.39 9313.55 9296.6 9279.51 9262.27 9244.87
9227.32 9209.62 9191.77 9173.77 9155.63 9137.37 9119 9100.52 9081.94 9063.28
9044.55 9025.75 9006.89 8987.99 8969.05 8950.07 8931.07 8912.06 8893.03 8874
8854.96 8835.93 8816.91 8797.9 8778.91 8759.94 8740.98 8722.05 8703.15 8684.27
8665.42 8646.61 8627.82 8609.06 8590.33 8571.64 8552.99 8534.38 8515.81 8497.29
8478.82 8460.41 8442.07 8423.81 8405.62 8387.53 8369.53 8351.63 8333.82 8316.11
8298.49 8280.96 8263.52 8246.17 8228.88 8211.68 8194.53 8177.45 8160.42 8143.44
8126.51 8109.62 8092.76 8075.94 8059.14 8042.38 8025.64 8008.92 7992.23 7975.56
7958.92 7942.3 7925.7 7909.13 7892.58 7876.06 7859.56 7843.1 7826.65 7810.24
7793.85 7777.49 7761.16 7744.86 7728.59 7712.36 7696.16 7679.99 7663.87 7647.78
7631.73 7615.72 7599.75 7583.83 7567.94 7552.1 7536.29 7520.53 7504.81 7489.14
7473.5 7457.91 7442.36 7426.86 7411.39 7395.97 7380.59 7365.25 7349.96 7334.71
7319.5 7304.34 7289.23 7274.17 7259.16 7244.19 7229.28 7214.43 7199.62 7184.87
7170.18 7155.55 7140.97 7126.45 7112 7097.61 7083.28 7069.01 7054.81 7040.67
7026.6 7012.6 6998.67 6984.81 6971.02 6957.32 6943.68 6930.13 6916.65 6903.26
6889.94 6876.7 6863.54 6850.46 6837.46 6824.53 6811.68 6798.91 6786.2 6773.57
6761 6748.5 6736.07 6723.7 6711.39 6699.15 6686.96 6674.83 6662.77 6650.76
6638.81 6626.92 6615.09 6603.31 6591.58 6579.92 6568.31 6556.75 6545.24 6533.79
6522.39 6511.05 6499.75 6488.51 6477.32 6466.18 6455.09 6444.06 6433.07 6422.14
6411.25 6400.42 6389.64 6378.91 6368.23 6357.6 6347.02 6336.49 6326 6315.57
6305.18 6294.83 6284.53 6274.27 6264.06 6253.88 6243.75 6233.65 6223.6 6213.58
6203.61 6193.67 6183.77 6173.9 6164.08 6154.29 6144.54 6134.83 6125.16 6115.52
6105.92 6096.36 6086.83 6077.34 6067.88 6058.46 6049.08 6039.73 6030.42 6021.15
6011.91 6002.71 5993.54 5984.41 5975.32 5966.26 5957.23 5948.24 5939.28 5930.35
5921.46 5912.59 5903.76 5894.95 5886.18 5877.43 5868.71 5860.01 5851.35 5842.71
5834.09 5825.5 5816.93 5808.39 5799.87 5791.37 5782.89 5774.44 5766.01 5757.6
5749.22 5740.85 5732.51 5724.18 5715.88 5707.6 5699.34 5691.1 5682.88 5674.67
5666.49 5658.33 5650.19 5642.06 5633.96 5625.87 5617.8 5609.75 5601.72 5593.71
5585.71 5577.73 5569.76 5561.81 5553.87 5545.95 5538.04 5530.15 5522.26 5514.39
5506.52 5498.67 5490.82 5482.99 5475.16 5467.33 5459.51 5451.7 5443.89 5436.08
5428.28 5420.47 5412.67 5404.87 5397.06 5389.26 5381.45 5373.64 5365.82 5358
5350.18 5342.35 5334.51 5326.66 5318.81 5310.95 5303.08 5295.19 5287.3 5279.4
5271.48 5263.55 5255.61 5247.65 5239.68 5231.69 5223.68 5215.65 5207.6 5199.54
5191.45 5183.33 5175.19 5167.03 5158.83 5150.61 5142.35 5134.07 5125.74 5117.38
5108.99 5100.55 5092.07 5083.55 5074.99 5066.37 5057.71 5049 5040.23 5031.41
5022.54 5013.6 5004.6 4995.54 4986.42 4977.22 4967.95 4958.61 4949.2 4939.7
4930.12 4920.46 4910.71 4900.87 4890.93 4880.9 4870.76 4860.51 4850.16 4839.69
4829.1 4818.39 4807.54 4796.57 4785.45 4774.18 4762.77 4751.19 4739.45 4727.53
4715.43 4703.14 4690.66 4677.96 4665.05 4651.91 4638.52 4624.89 4610.99 4596.81
4582.34 4567.55 4552.44 4536.97 4521.14 4504.91 4488.26 4471.16 4453.58 4435.49
4416.84 4397.59 4377.69 4357.08 4335.71 4313.49 4290.35 4266.19 4240.91 4214.37
4186.43 4156.9 4125.59 4092.25 4056.57 4018.2 3976.69 3931.49 3881.91 3827.06
3765.81 3696.62 3617.41 3525.18 3415.62 3281.69 3503.12 4360.19 6351.93 13843.8
92574.6 35148 34331.6 33901.6 33541.7 33211.8 32894 32583.5 32278.5 31978.3
31681.9 31388.7 31098.3 30810.4 30524.5 30240.5 29958.2 29677.4 29398 29120.1
28843.5 28568.1 28294.1 28021.2 27749.7 27479.4 27210.3 26942.4 26675.8 26410.5
26146.5 25883.9 25622.6 25362.7 25104.4 24847.5 24592.3 24338.9 24087.2 23837.4
23589.7 23344 23100.6 22859.6 22621.1 22385.3 22152.5 21922.7 21696.2 21473.3
21254.3 21039.5 20829.2 20623.8 20423.7 20229.4 20041.6 19861.2 19689.1 19527.2
19376.6 19245 19137.2
