# vtk DataFile Version 2.0
sampleSurface
ASCII
DATASET POLYDATA
POINTS 4338 double
-0.000152 0 0.001
-0.000152 0 -0.001
0 -0.00025 0.001
0 -0.00025 -0.001
-0.000456 0 -0.001
-0.000456 0 0.001
0 -0.0005 0.001
0 -0.0005 -0.001
0 -0.00075 0.001
0 -0.00075 -0.001
-0.00076 0 -0.001
-0.00076 0 0.001
0 -0.001 0.001
0 -0.001 -0.001
-0.001064 0 -0.001
-0.001064 0 0.001
0 -0.00125 0.001
0 -0.00125 -0.001
-0.001368 0 -0.001
-0.001368 0 0.001
0 -0.0015 0.001
0 -0.0015 -0.001
-0.001672 0 -0.001
-0.001672 0 0.001
0 -0.00175 0.001
0 -0.00175 -0.001
-0.001976 0 -0.001
-0.001976 0 0.001
0 -0.002 0.001
0 -0.002 -0.001
0 -0.00225 0.001
0 -0.00225 -0.001
-0.00228 0 -0.001
-0.00228 0 0.001
0 -0.0025 0.001
0 -0.0025 -0.001
-0.002584 0 -0.001
-0.002584 0 0.001
0 -0.00275 0.001
0 -0.00275 -0.001
-0.002888 0 -0.001
-0.002888 0 0.001
0 -0.003 0.001
0 -0.003 -0.001
-0.003192 0 -0.001
-0.003192 0 0.001
0 -0.00325 0.001
0 -0.00325 -0.001
-0.003496 0 -0.001
-0.003496 0 0.001
0 -0.0035 0.001
0 -0.0035 -0.001
0 -0.00375 0.001
0 -0.00375 -0.001
-0.0038 0 -0.001
-0.0038 0 0.001
0 -0.004 0.001
0 -0.004 -0.001
-0.004104 0 -0.001
-0.004104 0 0.001
0 -0.00425 0.001
0 -0.00425 -0.001
-0.004408 0 -0.001
-0.004408 0 0.001
0 -0.0045 0.001
0 -0.0045 -0.001
-0.004712 0 -0.001
-0.004712 0 0.001
0 -0.00475 0.001
0 -0.00475 -0.001
0 -0.005 0.001
0 -0.005 -0.001
-0.005016 0 -0.001
-0.005016 0 0.001
0 -0.00525 0.001
0 -0.00525 -0.001
-0.00532 0 -0.001
-0.00532 0 0.001
0 -0.0055 0.001
0 -0.0055 -0.001
-0.005624 0 -0.001
-0.005624 0 0.001
0 -0.00575 0.001
0 -0.00575 -0.001
-0.005928 0 -0.001
-0.005928 0 0.001
0 -0.006 0.001
0 -0.006 -0.001
-0.006232 0 -0.001
-0.006232 0 0.001
0 -0.00625 0.001
0 -0.00625 -0.001
0 -0.0065 0.001
0 -0.0065 -0.001
-0.006536 0 -0.001
-0.006536 0 0.001
0 -0.00675 0.001
0 -0.00675 -0.001
-0.00684 0 -0.001
-0.00684 0 0.001
0 -0.007 0.001
0 -0.007 -0.001
-0.007144 0 -0.001
-0.007144 0 0.001
0 -0.00725 0.001
0 -0.00725 -0.001
-0.007448 0 -0.001
-0.007448 0 0.001
0 -0.0075 0.001
0 -0.0075 -0.001
0 -0.00775 0.001
0 -0.00775 -0.001
-0.007752 0 -0.001
-0.007752 0 0.001
0 -0.008 0.001
0 -0.008 -0.001
-0.008056 0 -0.001
-0.008056 0 0.001
0 -0.00825 0.001
0 -0.00825 -0.001
-0.00836 0 -0.001
-0.00836 0 0.001
0 -0.0085 0.001
0 -0.0085 -0.001
-0.008664 0 -0.001
-0.008664 0 0.001
0 -0.00875 0.001
0 -0.00875 -0.001
-0.008968 0 -0.001
-0.008968 0 0.001
0 -0.009 0.001
0 -0.009 -0.001
0 -0.00925 0.001
0 -0.00925 -0.001
-0.009272 0 -0.001
-0.009272 0 0.001
0 -0.0095 0.001
0 -0.0095 -0.001
-0.009576 0 -0.001
-0.009576 0 0.001
0 -0.00975 0.001
0 -0.00975 -0.001
-0.00988 0 -0.001
-0.00988 0 0.001
0 -0.01 0.001
0 -0.01 -0.001
-0.010184 0 -0.001
-0.010184 0 0.001
0 -0.01025 0.001
0 -0.01025 -0.001
-0.010488 0 -0.001
-0.010488 0 0.001
0 -0.0105 0.001
0 -0.0105 -0.001
0 -0.01075 0.001
0 -0.01075 -0.001
-0.010792 -5.78241e-19 -0.001
-0.010792 -5.78241e-19 0.001
0 -0.011 0.001
0 -0.011 -0.001
-0.011096 0 -0.001
-0.011096 0 0.001
0 -0.01125 0.001
0 -0.01125 -0.001
-0.0114 0 -0.001
-0.0114 0 0.001
0 -0.0115 0.001
0 -0.0115 -0.001
-0.011704 0 -0.001
-0.011704 0 0.001
0 -0.01175 0.001
0 -0.01175 -0.001
0 -0.012 0.001
0 -0.012 -0.001
-0.012008 0 -0.001
-0.012008 0 0.001
0 -0.01225 0.001
0 -0.01225 -0.001
-0.012312 0 -0.001
-0.012312 0 0.001
0 -0.0125 0.001
0 -0.0125 -0.001
-0.012616 0 -0.001
-0.012616 0 0.001
0 -0.01275 0.001
0 -0.01275 -0.001
-0.01292 0 -0.001
-0.01292 0 0.001
0 -0.013 0.001
0 -0.013 -0.001
-0.013224 0 -0.001
-0.013224 0 0.001
0 -0.01325 0.001
0 -0.01325 -0.001
0 -0.0135 0.001
0 -0.0135 -0.001
-0.013528 0 -0.001
-0.013528 0 0.001
0 -0.01375 0.001
0 -0.01375 -0.001
-0.013832 0 -0.001
-0.013832 0 0.001
0 -0.014 0.001
0 -0.014 -0.001
-0.014136 0 -0.001
-0.014136 0 0.001
0 -0.01425 0.001
0 -0.01425 -0.001
-0.01444 0 -0.001
-0.01444 0 0.001
0 -0.0145 0.001
0 -0.0145 -0.001
-0.014744 0 -0.001
-0.014744 0 0.001
0 -0.01475 0.001
0 -0.01475 -0.001
0 -0.015 0.001
0 -0.015 -0.001
-0.015048 0 -0.001
-0.015048 0 0.001
0 -0.01525 0.001
0 -0.01525 -0.001
-0.015352 0 -0.001
-0.015352 0 0.001
0 -0.0155 0.001
0 -0.0155 -0.001
-0.015656 0 -0.001
-0.015656 0 0.001
0 -0.01575 0.001
0 -0.01575 -0.001
-0.01596 0 -0.001
-0.01596 0 0.001
0 -0.016 0.001
0 -0.016 -0.001
0 -0.01625 0.001
0 -0.01625 -0.001
-0.016264 0 -0.001
-0.016264 0 0.001
0 -0.0165 0.001
0 -0.0165 -0.001
-0.016568 0 -0.001
-0.016568 0 0.001
0 -0.01675 0.001
0 -0.01675 -0.001
-0.016872 0 -0.001
-0.016872 0 0.001
0 -0.017 0.001
0 -0.017 -0.001
-0.017176 0 -0.001
-0.017176 0 0.001
0 -0.01725 0.001
0 -0.01725 -0.001
-0.01748 0 -0.001
-0.01748 0 0.001
0 -0.0175 0.001
0 -0.0175 -0.001
0 -0.01775 0.001
0 -0.01775 -0.001
-0.017784 0 -0.001
-0.017784 0 0.001
0 -0.018 0.001
0 -0.018 -0.001
-0.018088 0 -0.001
-0.018088 0 0.001
0 -0.01825 0.001
0 -0.01825 -0.001
-0.018392 0 -0.001
-0.018392 0 0.001
0 -0.0185 0.001
0 -0.0185 -0.001
-0.018696 0 -0.001
-0.018696 0 0.001
0 -0.01875 0.001
0 -0.01875 -0.001
0 -0.019 0.001
0 -0.019 -0.001
-0.019 0 -0.001
-0.019 0 0.001
0 -0.01925 0.001
0 -0.01925 -0.001
0 -0.0195 0.001
0 -0.0195 -0.001
0 -0.01975 0.001
0 -0.01975 -0.001
0 -0.02 0.001
0 -0.02 -0.001
0 -0.02025 0.001
0 -0.02025 -0.001
0 -0.0205 0.001
0 -0.0205 -0.001
0 -0.02075 0.001
0 -0.02075 -0.001
0 -0.021 0.001
0 -0.021 -0.001
0 -0.02125 0.001
0 -0.02125 -0.001
0 -0.0215 0.001
0 -0.0215 -0.001
0 -0.02175 0.001
0 -0.02175 -0.001
0 -0.022 0.001
0 -0.022 -0.001
0 -0.02225 0.001
0 -0.02225 -0.001
0 -0.0225 0.001
0 -0.0225 -0.001
0 -0.02275 0.001
0 -0.02275 -0.001
0 -0.023 0.001
0 -0.023 -0.001
0 -0.02325 0.001
0 -0.02325 -0.001
0 -0.0235 0.001
0 -0.0235 -0.001
0 -0.02375 0.001
0 -0.02375 -0.001
0 -0.024 0.001
0 -0.024 -0.001
0 -0.02425 0.001
0 -0.02425 -0.001
0 -0.0245 0.001
0 -0.0245 -0.001
0 -0.02475 0.001
0 -0.02475 -0.001
0 -0.025 0.001
0 -0.025 -0.001
1.00662e-06 -0.02525 0.001
1.00662e-06 -0.02525 -0.001
0.000152 -0.0254 -0.001
0.000152 -0.0254 0.001
-0.000152 0.0254 0.001
-0.000152 0.0254 -0.001
0.000152 0.0254 0.001
0.000152 0.0254 -0.001
0.000456 -0.0254 0.001
0.000456 -0.0254 -0.001
-0.000456 0.0254 0.001
-0.000456 0.0254 -0.001
0.000456 0.0254 0.001
0.000456 0.0254 -0.001
0.00076 -0.0254 0.001
0.00076 -0.0254 -0.001
-0.00076 0.0254 0.001
-0.00076 0.0254 -0.001
0.00076 0.0254 0.001
0.00076 0.0254 -0.001
0.001064 -0.0254 0.001
0.001064 -0.0254 -0.001
-0.001064 0.0254 0.001
-0.001064 0.0254 -0.001
0.001064 0.0254 0.001
0.001064 0.0254 -0.001
0.001368 -0.0254 0.001
0.001368 -0.0254 -0.001
-0.001368 0.0254 0.001
-0.001368 0.0254 -0.001
0.001368 0.0254 0.001
0.001368 0.0254 -0.001
0.001672 -0.0254 0.001
0.001672 -0.0254 -0.001
-0.001672 0.0254 0.001
-0.001672 0.0254 -0.001
0.001672 0.0254 0.001
0.001672 0.0254 -0.001
0.001976 -0.0254 0.001
0.001976 -0.0254 -0.001
-0.001976 0.0254 0.001
-0.001976 0.0254 -0.001
0.001976 0.0254 0.001
0.001976 0.0254 -0.001
0.00228 -0.0254 0.001
0.00228 -0.0254 -0.001
-0.00228 0.0254 0.001
-0.00228 0.0254 -0.001
0.00228 0.0254 0.001
0.00228 0.0254 -0.001
0.002584 -0.0254 0.001
0.002584 -0.0254 -0.001
-0.002584 0.0254 0.001
-0.002584 0.0254 -0.001
0.002584 0.0254 0.001
0.002584 0.0254 -0.001
0.002888 -0.0254 0.001
0.002888 -0.0254 -0.001
-0.002888 0.0254 0.001
-0.002888 0.0254 -0.001
0.002888 0.0254 0.001
0.002888 0.0254 -0.001
0.003192 -0.0254 0.001
0.003192 -0.0254 -0.001
-0.003192 0.0254 0.001
-0.003192 0.0254 -0.001
0.003192 0.0254 0.001
0.003192 0.0254 -0.001
0.003496 -0.0254 0.001
0.003496 -0.0254 -0.001
-0.003496 0.0254 0.001
-0.003496 0.0254 -0.001
0.003496 0.0254 0.001
0.003496 0.0254 -0.001
0.0038 -0.0254 0.001
0.0038 -0.0254 -0.001
-0.0038 0.0254 0.001
-0.0038 0.0254 -0.001
0.0038 0.0254 0.001
0.0038 0.0254 -0.001
0.004104 -0.0254 0.001
0.004104 -0.0254 -0.001
-0.004104 0.0254 0.001
-0.004104 0.0254 -0.001
0.004104 0.0254 0.001
0.004104 0.0254 -0.001
0.004408 -0.0254 0.001
0.004408 -0.0254 -0.001
-0.004408 0.0254 0.001
-0.004408 0.0254 -0.001
0.004408 0.0254 0.001
0.004408 0.0254 -0.001
0.004712 -0.0254 0.001
0.004712 -0.0254 -0.001
-0.004712 0.0254 0.001
-0.004712 0.0254 -0.001
0.004712 0.0254 0.001
0.004712 0.0254 -0.001
0.005016 -0.0254 0.001
0.005016 -0.0254 -0.001
-0.005016 0.0254 0.001
-0.005016 0.0254 -0.001
0.005016 0.0254 0.001
0.005016 0.0254 -0.001
0.00532 -0.0254 0.001
0.00532 -0.0254 -0.001
-0.00532 0.0254 0.001
-0.00532 0.0254 -0.001
0.00532 0.0254 0.001
0.00532 0.0254 -0.001
0.005624 -0.0254 0.001
0.005624 -0.0254 -0.001
-0.005624 0.0254 0.001
-0.005624 0.0254 -0.001
0.005624 0.0254 0.001
0.005624 0.0254 -0.001
0.005928 -0.0254 0.001
0.005928 -0.0254 -0.001
-0.005928 0.0254 0.001
-0.005928 0.0254 -0.001
0.005928 0.0254 0.001
0.005928 0.0254 -0.001
0.006232 -0.0254 0.001
0.006232 -0.0254 -0.001
-0.006232 0.0254 0.001
-0.006232 0.0254 -0.001
0.006232 0.0254 0.001
0.006232 0.0254 -0.001
0.006536 -0.0254 0.001
0.006536 -0.0254 -0.001
-0.006536 0.0254 0.001
-0.006536 0.0254 -0.001
0.006536 0.0254 0.001
0.006536 0.0254 -0.001
0.00684 -0.0254 0.001
0.00684 -0.0254 -0.001
-0.00684 0.0254 0.001
-0.00684 0.0254 -0.001
0.00684 0.0254 0.001
0.00684 0.0254 -0.001
0.007144 -0.0254 0.001
0.007144 -0.0254 -0.001
-0.007144 0.0254 0.001
-0.007144 0.0254 -0.001
0.007144 0.0254 0.001
0.007144 0.0254 -0.001
0.007448 -0.0254 0.001
0.007448 -0.0254 -0.001
-0.007448 0.0254 0.001
-0.007448 0.0254 -0.001
0.007448 0.0254 0.001
0.007448 0.0254 -0.001
0.007752 -0.0254 0.001
0.007752 -0.0254 -0.001
-0.007752 0.0254 0.001
-0.007752 0.0254 -0.001
0.007752 0.0254 0.001
0.007752 0.0254 -0.001
0.008056 -0.0254 0.001
0.008056 -0.0254 -0.001
-0.008056 0.0254 0.001
-0.008056 0.0254 -0.001
0.008056 0.0254 0.001
0.008056 0.0254 -0.001
0.00836 -0.0254 0.001
0.00836 -0.0254 -0.001
-0.00836 0.0254 0.001
-0.00836 0.0254 -0.001
0.00836 0.0254 0.001
0.00836 0.0254 -0.001
0.008664 -0.0254 0.001
0.008664 -0.0254 -0.001
-0.008664 0.0254 0.001
-0.008664 0.0254 -0.001
0.008664 0.0254 0.001
0.008664 0.0254 -0.001
0.008968 -0.0254 0.001
0.008968 -0.0254 -0.001
-0.008968 0.0254 0.001
-0.008968 0.0254 -0.001
0.008968 0.0254 0.001
0.008968 0.0254 -0.001
0.009272 -0.0254 0.001
0.009272 -0.0254 -0.001
[...]
CELL_DATA 2113
FIELD attributes 1
k 1 2113 double
1.52424e-11 6.24534e-10 5.95575e-09 2.12769e-08 5.40433e-08 1.17584e-07 2.33321e-07 4.32802e-07 7.61345e-07 1.22801e-06
1.79978e-06 2.42502e-06 3.02412e-06 3.54605e-06 3.96375e-06 4.26524e-06 4.45007e-06 4.52776e-06 4.51363e-06 4.42484e-06
4.27825e-06 4.08916e-06 3.87072e-06 3.63396e-06 3.38868e-06 3.15414e-06 2.94564e-06 2.75365e-06 2.57223e-06 2.39842e-06
2.23061e-06 2.06864e-06 1.91284e-06 1.76375e-06 1.62206e-06 1.48845e-06 1.36355e-06 1.24783e-06 1.14157e-06 1.04486e-06
9.57673e-07 8.79923e-07 8.11498e-07 7.5277e-07 7.03899e-07 6.65266e-07 6.37545e-07 6.21805e-07 6.19871e-07 6.34897e-07
6.72435e-07 7.42704e-07 8.63865e-07 1.06528e-06 1.39166e-06 1.90444e-06 2.6744e-06 3.77146e-06 5.26049e-06 7.20377e-06
9.66015e-06 1.26317e-05 1.60369e-05 1.9745e-05 2.36218e-05 2.75528e-05 3.14686e-05 3.53337e-05 3.91382e-05 4.29131e-05
4.67074e-05 5.0566e-05 5.45306e-05 5.86557e-05 6.29958e-05 6.75922e-05 7.24824e-05 7.77011e-05 8.32786e-05 8.92385e-05
9.55942e-05 0.00010235 0.000109524 0.000117158 0.000125308 0.000134039 0.000143415 0.000153487 0.000164297 0.000175872
0.000188226 0.000201381 0.000215356 0.000230166 0.00024582 0.000262322 0.000279675 0.000297879 0.000316942 0.000336885
0.000357745 0.000379572 0.000402401 0.000426244 0.000451101 0.000476981 0.000503895 0.000531857 0.000560885 0.000590998
0.000622217 0.000654567 0.000688072 0.000722759 0.000758654 0.000795783 0.000834174 0.000873849 0.00091483 0.000957131
0.00100076 0.0010457 0.00109193 0.00113939 0.00118796 0.00123754 0.00128809 0.0013399 0.00139309 0.00144769
0.00150373 0.00156123 0.00162021 0.00168071 0.00174273 0.00180631 0.00187146 0.0019382 0.00200654 0.00207648
0.00214803 0.00222117 0.0022959 0.00237217 0.00244998 0.00252933 0.00261029 0.00269299 0.00277754 0.00286396
0.00295231 0.00304262 0.00313492 0.00322922 0.00332549 0.00342363 0.0035234 0.00362439 0.0037259 0.0038271
0.00392905 0.00403274 0.00413818 0.00424538 0.00435433 0.00446506 0.00457756 0.00469184 0.00480791 0.00492578
0.00504545 0.00516694 0.00529025 0.00541538 0.00554234 0.00567114 0.00580177 0.00593425 0.00606856 0.00620469
0.00634263 0.00648234 0.00662378 0.00676693 0.00691177 0.0070584 0.00720691 0.00735736 0.00751056 0.00766538
0.00782136 0.00797887 0.00813775 0.00829843 0.00846087 0.00862506 0.00879096 0.00895856 0.00912783 0.00929878
0.00947142 0.00964576 0.00982183 0.0099996 0.010179 0.0103601 0.0105427 0.0107269 0.0109127 0.0111
0.0112888 0.0114791 0.0116709 0.0118641 0.0120588 0.0122548 0.0124521 0.0126508 0.0128507 0.0130519
0.0132542 0.0134578 0.0136626 0.0138685 0.0140757 0.014284 0.0144934 0.0147038 0.0149154 0.0151279
0.0153415 0.015556 0.0157714 0.0159877 0.0162048 0.0164228 0.0166415 0.0168609 0.017081 0.0173017
0.017523 0.0177449 0.0179673 0.0181902 0.0184138 0.0186378 0.0188625 0.0190876 0.0193132 0.0195392
0.0197654 0.0199919 0.0202186 0.0204455 0.0206725 0.0208997 0.021127 0.0213544 0.0215818 0.0218092
0.0220366 0.0222638 0.0224909 0.0227176 0.0229439 0.0231696 0.0233947 0.0236193 0.0238436 0.0240677
0.0242914 0.0245148 0.0247373 0.024959 0.0251797 0.0253996 0.0256189 0.0258376 0.0260554 0.0262723
0.0264885 0.0267041 0.0269193 0.0271343 0.0273489 0.0275624 0.0277748 0.0279862 0.0281967 0.0284062
0.0286148 0.0288224 0.0290291 0.0292346 0.0294391 0.0296424 0.0298443 0.0300447 0.0302434 0.0304404
0.0306353 0.0308278 0.0310177 0.0312052 0.0313944 0.0315837 0.0317713 0.0319574 0.0321421 0.0323252
0.0325068 0.0326868 0.0328653 0.0330421 0.0332173 0.0333909 0.0335628 0.0337329 0.0339013 0.0340678
0.0342325 0.0343952 0.0345561 0.0347152 0.0348728 0.0350291 0.0351837 0.0353362 0.0354868 0.0356354
0.0357822 0.0359272 0.0360703 0.0362116 0.0363511 0.0364887 0.0366244 0.0367583 0.0368903 0.0370205
0.0371487 0.0372751 0.0373996 0.0375222 0.037643 0.0377618 0.0378787 0.0379937 0.0381068 0.0382181
0.0383274 0.0384348 0.0385403 0.0386439 0.0387455 0.0388453 0.0389432 0.0390392 0.0391333 0.0392255
0.0393157 0.0394041 0.0394907 0.0395753 0.039658 0.0397389 0.0398178 0.039895 0.0399702 0.0400436
0.0401151 0.0401848 0.0402527 0.0403187 0.040383 0.0404456 0.0405065 0.0405657 0.0406235 0.0406795
0.0407335 0.0407854 0.0408357 0.0408845 0.0409316 0.040977 0.0410206 0.0410624 0.0411025 0.0411408
0.0411774 0.0412123 0.0412454 0.0412769 0.0413067 0.0413347 0.0413612 0.041386 0.0414091 0.0414306
0.0414505 0.0414688 0.0414855 0.0415006 0.0415142 0.0415261 0.0415366 0.0415455 0.0415529 0.0415589
0.0415633 0.0415662 0.0415677 0.0415678 0.0415664 0.0415636 0.0415594 0.0415538 0.0415468 0.0415384
0.0415288 0.0415177 0.0415054 0.0414918 0.0414769 0.0414607 0.0414432 0.0414244 0.0414044 0.0413829
0.04136 0.0413355 0.0413091 0.0412815 0.0412536 0.0412252 0.0411951 0.0411634 0.0411304 0.0410964
0.0410613 0.0410252 0.0409881 0.04095 0.040911 0.0408709 0.04083 0.040788 0.0407452 0.0407014
0.0406567 0.0406111 0.0405646 0.0405173 0.040469 0.04042 0.0403701 0.0403194 0.0402679 0.0402156
0.0401625 0.0401086 0.040054 0.0399987 0.0399426 0.0398858 0.0398283 0.0397702 0.0397113 0.0396518
0.0395917 0.0395309 0.0394695 0.0394074 0.0393448 0.0392817 0.0392183 0.0391548 0.0390905 0.0390256
0.0389604 0.0388946 0.0388283 0.0387614 0.0386939 0.0386259 0.0385574 0.0384884 0.038419 0.0383491
0.0382787 0.038208 0.0381368 0.0380652 0.0379933 0.0379209 0.0378482 0.0377752 0.0377018 0.0376281
0.037554 0.0374797 0.0374051 0.0373302 0.037255 0.0371796 0.0371039 0.037028 0.0369518 0.0368754
0.0367989 0.0367221 0.0366452 0.036568 0.0364907 0.0364133 0.0363357 0.036258 0.0361802 0.0361024
0.0360245 0.0359466 0.0358683 0.0357899 0.0357116 0.0356335 0.0355555 0.0354777 0.0354001 0.0353218
0.0352414 0.0351617 0.035084 0.0350052 0.0349255 0.0348459 0.0347667 0.0346878 0.0346092 0.0345311
0.034453 0.0343748 0.0342968 0.0342188 0.0341402 0.0340615 0.0339841 0.0339058 0.0338264 0.0337478
0.0336707 0.0335948 0.0335178 0.0334426 0.0333706 0.0332984 0.0332238 0.0331484 0.033073 0.0329979
0.0329233 0.032849 0.0327749 0.032701 0.0326274 0.0325539 0.0324811 0.0324106 0.0323402 0.0322685
0.0321945 0.0321209 0.0320503 0.0319798 0.0319095 0.0318394 0.0317696 0.0317001 0.031631 0.0315619
0.0314928 0.031424 0.0313557 0.0312878 0.0312202 0.0311529 0.0310859 0.0310192 0.0309529 0.0308869
0.0308212 0.0307558 0.0306908 0.0306261 0.0305616 0.0304976 0.0304338 0.0303703 0.0303072 0.0302444
0.0301819 0.0301197 0.0300579 0.0299964 0.0299351 0.0298742 0.0298136 0.0297534 0.0296934 0.0296337
0.0295743 0.0295152 0.0294565 0.029398 0.0293398 0.0292818 0.0292242 0.0291668 0.0291097 0.0290528
0.0289962 0.0289398 0.0288836 0.0288277 0.028772 0.0287165 0.0286612 0.028606 0.0285511 0.0284962
0.0284415 0.028387 0.0283325 0.0282781 0.0282237 0.0281694 0.028115 0.0280606 0.0280062 0.0279516
0.0278969 0.0278419 0.0277868 0.0277313 0.0276754 0.0276191 0.0275622 0.0275046 0.0274463 0.0273871
0.0273269 0.0272655 0.0272027 0.0271382 0.0270718 0.0270031 0.0269319 0.0268575 0.0267795 0.0266972
0.0266097 0.026516 0.0264149 0.0263047 0.0261832 0.0260479 0.0258949 0.0257203 0.0255456 0.0253288
0.0250787 0.0247842 0.0244286 0.0239912 0.0234419 0.0227329 0.0217648 0.0202236 0.0152701 0.00837689
0.00343169 0.000895743 0.000129554 5.68373e-10 0.0326393 0.0306336 0.0217976 0.0129507 0.00650624 0.00260248
0.000644261 8.91534e-05 4.83346e-09 0.0230851 0.0226831 0.0171114 0.0106431 0.00548369 0.00218067 0.000521737
0.000237709 1.53759e-08 0.0565944 0.046795 0.0328047 0.0200627 0.0108301 0.0050876 0.00188318 0.000411316
3.05198e-08 0.0497872 0.0425162 0.0298241 0.0177783 0.00923628 0.00419689 0.00148771 0.000296078 4.62568e-08
0.0401496 0.0345354 0.0245579 0.0148686 0.00785904 0.00356659 0.00120844 0.00022135 6.01778e-08 0.033147
0.0286079 0.020503 0.0126016 0.00675267 0.00304411 0.000980399 0.000173947 7.29267e-08 0.0272461 0.0238323
0.0171821 0.0106377 0.00571492 0.00253602 0.000767966 0.000133077 8.78441e-08 0.021724 0.0193117 0.0140903
0.00881202 0.00474915 0.00207259 0.000583034 9.56524e-05 1.07061e-07 0.0166759 0.0151464 0.0112285 0.00713399
0.00387435 0.00166835 0.000443369 0.000166333 1.2999e-07 0.0439652 0.0356149 0.0252621 0.0156988 0.00864341
0.00417527 0.00162223 0.000381101 1.57711e-07 0.0406001 0.0327456 0.0230628 0.014048 0.00747464 0.00346459
0.00127342 0.000276032 1.91608e-07 0.0326233 0.0264005 0.0186106 0.0113895 0.00612121 0.0028414 0.00100988
0.000207412 2.32543e-07 0.0266328 0.0217348 0.0153003 0.00938892 0.00507662 0.00234386 0.000797062 0.000162537
2.82658e-07 0.0213901 0.0176808 0.01254 0.00774899 0.00420106 0.00191238 0.000613314 0.000122228 3.43841e-07
0.0167555 0.0141277 0.0101273 0.00630453 0.00341805 0.00152922 0.000461547 0.000179575 4.1785e-07 0.0396791
0.0309663 0.0218252 0.0136949 0.00766798 0.00381016 0.00156675 0.000418216 0.000129524 5.08125e-07 0.0382105
0.02924 0.0201613 0.012378 0.00678887 0.00329463 0.00130388 0.000322651 6.17354e-07 0.0328207 0.0253101
0.0175862 0.0107683 0.00580298 0.00272735 0.00102448 0.000236068 7.48894e-07 0.0263168 0.0203839 0.0141178
0.00863496 0.00467098 0.00219154 0.000796112 0.000179056 9.06669e-07 0.0210773 0.0165291 0.0114982 0.00705222
0.00382139 0.0017758 0.000617191 0.000139253 1.09514e-06 0.0167361 0.0133227 0.0093373 0.0057546 0.00312069
0.00142969 0.000469387 0.000103379 1.31907e-06 0.012881 0.0105001 0.00745463 0.00462866 0.00250654 0.00112524
0.000345424 0.000120825 1.58319e-06 0.0294033 0.0224257 0.0156605 0.00986114 0.00558593 0.00282151 0.00118731
0.000326909 1.89196e-06 0.0301641 0.0226694 0.0156662 0.00969467 0.00531475 0.00255588 0.00100603 0.000255808
2.24966e-06 0.0258091 0.0194048 0.0133008 0.00813051 0.00440007 0.00208417 0.000792165 0.000191617 2.6605e-06
0.0209668 0.0158732 0.0108638 0.0066203 0.00358402 0.00169052 0.000621023 0.000151137 3.12904e-06 0.0169605
0.0129738 0.00893295 0.00545896 0.00295117 0.00137181 0.000480577 0.000117454 3.66068e-06 0.0133845 0.0103964
0.0072202 0.00443524 0.00240028 0.0011003 0.000364788 8.71007e-05 4.26104e-06 0.0102137 0.00813148 0.00573439
0.00355529 0.0019231 0.000863404 0.00026746 8.58468e-05 4.93401e-06 0.0230248 0.0173863 0.0120659 0.00756758
0.00426904 0.00215583 0.000912399 0.000257836 5.68213e-06 0.024216 0.0180697 0.01241 0.00766416 0.00420539
0.00203417 0.000809443 0.000212525 6.50683e-06 0.0217848 0.0163123 0.0111514 0.00681144 0.00368396 0.0017478
0.000669025 0.000171309 7.40759e-06 0.0187563 0.0142325 0.00984416 0.00610416 8.38376e-06 9.43649e-06 1.05663e-05
1.17724e-05 1.30534e-05 1.44086e-05 1.58334e-05 1.73246e-05 1.88805e-05 2.0499e-05 2.21801e-05 2.39292e-05 2.57587e-05
2.76948e-05 2.97363e-05 3.18153e-05 3.38993e-05 3.59842e-05 3.80746e-05 4.01682e-05 4.22613e-05 4.43497e-05 4.64264e-05
4.84832e-05 5.05182e-05 5.25297e-05 5.45168e-05 5.64733e-05 5.83946e-05 6.02785e-05 6.21263e-05 6.39384e-05 6.57168e-05
6.746e-05 6.91695e-05 7.08347e-05 7.24482e-05 7.39938e-05 7.54605e-05 7.68413e-05 7.81499e-05 7.93843e-05 8.05443e-05
8.16111e-05 8.25792e-05 8.34378e-05 8.41875e-05 8.48074e-05 8.52892e-05 8.56087e-05 8.57508e-05 8.56897e-05 8.54107e-05
8.48817e-05 8.41041e-05 8.30934e-05 8.1907e-05 8.06124e-05 7.93225e-05 7.82695e-05 7.7926e-05 7.91658e-05 8.37947e-05
9.58231e-05 0.00012565 0.0002064 0.000293072 0.00048743 0.00252494 0.00178116 0.00116287 0.000707 0.00307918
0.00215437 0.00139475 0.000838447 0.000473401 0.000242499 9.77201e-05 2.46344e-05 0.00354379 0.00246344 0.00159365
0.000962509 0.000548939 0.000287321 0.000121537 3.19014e-05 0.00350358 0.00246803 0.00161736 0.000992295 0.000579114
0.000313938 0.000140576 3.99775e-05 0.00153633 0.00116584 0.000807451 0.00051241 0.000292625 0.000138058 4.312e-05
1.28608e-05 0.00206364 0.00151273 0.00102341 0.000641909 0.000368528 0.000179098 6.05782e-05 1.40341e-05 0.00267132
0.00191294 0.00127145 0.00078823 0.000452855 0.000225247 8.14993e-05 1.951e-05 0.00335292 0.00236472 0.00155292
0.000954001 0.000548086 0.000278215 0.000106647 2.5694e-05 0.0040562 0.00282893 0.00184057 0.00112469 0.000648559
0.000336499 0.000136061 3.30839e-05 0.00463345 0.00320397 0.00208342 0.00127998 0.000745385 0.000394509 0.000167015
4.32031e-05 0.00456312 0.00319332 0.00209569 0.00130373 0.000776737 0.000426589 0.00019154 5.39646e-05 0.00200014
0.0015326 0.00107022 0.000685146 0.000393792 0.000186245 5.81149e-05 1.83752e-05 0.00264202 0.00194971 0.00132964
0.000842954 0.000488402 0.00023848 8.08312e-05 1.78664e-05 0.00337659 0.0024278 0.00162563 0.0010199 0.000592708
0.000296838 0.000107775 2.46178e-05 0.00421455 0.00297781 0.00196876 0.00122435 0.000712002 0.00036385 0.000139963
3.21803e-05 0.00503052 0.00350201 0.00229293 0.00142238 0.000833778 0.000436567 0.000177256 4.22789e-05 0.00555439
0.00384591 0.0025075 0.00155824 0.000925176 0.000498365 0.000213652 5.51738e-05 0.00554618 0.00387275 0.00254959
0.00160112 0.000964217 0.000532856 0.000239806 6.7671e-05 1.83449e-05 0.00244622 0.00188654 0.00132192 0.000848444
0.00048849 0.000231567 7.27839e-05 2.43916e-05 0.00317555 0.00235984 0.00161779 0.00102954 0.00059752 0.000292244
9.96594e-05 2.14248e-05 0.00400578 0.00290296 0.00195701 0.00123353 0.000717863 0.000359688 0.000131365 2.91169e-05
0.00488502 0.00348197 0.00232093 0.00145291 0.000847897 0.000434089 0.000167877 3.77662e-05 0.00561184 0.00395371
0.00262768 0.00165034 0.000972156 0.000508728 0.00020725 4.95334e-05 0.00552328 0.00393722 0.0026431 0.00168286
0.00101386 0.000549897 0.000238029 6.24479e-05 0.00242392 0.00195103 0.00138816 0.000887734 0.000501847 0.000229912
6.71105e-05 2.0281e-05 0.00330552 0.00254234 0.00176703 0.00112054 0.000638308 0.000301972 9.63797e-05 1.95522e-05
0.00443256 0.00329942 0.00224749 0.0014079 0.0008019 0.000388047 0.000133666 2.87085e-05 0.0059319 0.00431812
0.0028936 0.00178739 0.00101249 0.000497947 0.000182318 4.01293e-05 0.00793972 0.00567332 0.0037521 0.0022944
0.00129477 0.000644928 0.000247961 5.59555e-05 0.0104752 0.00740191 0.0048769 0.00297641 0.00167799 0.000843576
0.00033789 8.18893e-05 0.0126251 0.00897334 0.00590799 0.00361074 0.0020607 0.00106577 0.000450401 0.00011917
0.00738619 0.00570917 0.00386969 0.00233258 0.00124127 0.000543993 0.000157851 5.1467e-05 0.015132 0.0115926
0.00776361 0.00459468 0.00239845 0.00104643 0.000318162 6.21991e-05 0.271803 0.197327 0.14362 0.104928
0.0770638 0.0570045 0.0425677 0.0321716 0.0246726 0.019245 0.0152949 0.0123968 0.010247 0.00862966
0.00739251 0.00642907 0.00566507 0.00504857 0.00454318 0.00412353 0.0037722 0.00347733 0.00323041 0.00302499
0.002856 0.00271943 0.00261212 0.00253154 0.00247576 0.00244333 0.00243326 0.00244499 0.00247839 0.0025337
0.0026116 0.00271316 0.00283989 0.00299377 0.00317728 0.00339342 0.00364583 0.00393854 0.00427557 0.00466143
0.00510321 0.00567005 0.00645939 0.00742248 0.00854034 0.00976663 0.0110742 0.0124702 0.0139022 0.0153472
0.0168036 0.0182742 0.0197624 0.0212704 0.0227989 0.0243461 0.0259087 0.027483 0.0290658 0.0306356
0.0321816 0.0336959 0.0351613 0.0365796 0.0379409 0.0392718 0.0405699 0.0418206 0.0430019 0.0440937
0.0450938 0.0460054 0.0468323 0.0475803 0.0482474 0.0488401 0.049357 0.0498365 0.0503427 0.0508152
0.0512285 0.0515732 0.0518478 0.0520544 0.0521971 0.0522817 0.052315 0.0523038 0.0522543 0.0521722
0.0520629 0.0519312 0.0517814 0.0516175 0.0514428 0.0512606 0.0510733 0.0508834 0.0506927 0.0505029
0.0503155 0.0501314 0.0499516 0.0497769 0.0496077 0.0494444 0.049287 0.0491358 0.0489907 0.0488516
0.0487182 0.0485905 0.0484684 0.048352 0.0482413 0.0481366 0.0480378 0.0479453 0.0478591 0.0477794
0.0477062 0.0476396 0.0475797 0.0475264 0.0474799 0.0474402 0.0474117 0.0474009 0.0474109 0.0474423
0.0474946 0.047566 0.0476543 0.0477568 0.0478705 0.0479927 0.0481204 0.048251 0.048382 0.0485111
0.0486364 0.0487563 0.0488694 0.0489746 0.0490711 0.0491582 0.0492358 0.0493035 0.0493614 0.0494098
0.0494488 0.0494789 0.0495004 0.0495138 0.0495197 0.0495185 0.0495107 0.0494969 0.0494775 0.049453
0.0494239 0.0493907 0.0493536 0.0493132 0.0492698 0.0492237 0.0491751 0.0491245 0.0490719 0.0490178
0.0489622 0.0489053 0.0488473 0.0487884 0.0487287 0.0486682 0.048607 0.0485453 0.0484832 0.0484206
0.0483577 0.0482946 0.0482312 0.0481678 0.0481042 0.0480406 0.0479769 0.0479132 0.0478495 0.0477858
0.0477223 0.0476588 0.0475953 0.0475317 0.0474681 0.0474048 0.0473419 0.0472793 0.0472169 0.0471547
0.0470926 0.0470306 0.0469687 0.0469069 0.0468453 0.0467837 0.0467223 0.0466609 0.0465997 0.0465386
0.0464776 0.0464167 0.0463559 0.0462952 0.0462345 0.046174 0.0461134 0.046053 0.0459926 0.0459322
0.0458719 0.0458116 0.0457513 0.045691 0.0456307 0.0455704 0.04551 0.0454496 0.0453892 0.0453287
0.0452682 0.0452077 0.045147 0.0450864 0.0450256 0.0449648 0.0449039 0.0448429 0.0447818 0.0447206
0.0446593 0.044598 0.0445365 0.0444748 0.0444131 0.0443512 0.0442892 0.0442271 0.0441648 0.0441024
0.0440398 0.0439771 0.0439142 0.0438512 0.043788 0.0437246 0.0436611 0.0435974 0.0435335 0.0434694
0.0434052 0.0433407 0.0432761 0.0432113 0.0431462 0.043081 0.0430156 0.0429499 0.0428841 0.0428181
0.0427518 0.0426854 0.0426187 0.0425519 0.0424848 0.0424175 0.0423499 0.0422822 0.0422142 0.042146
0.0420775 0.0420089 0.04194 0.0418708 0.0418014 0.0417318 0.0416619 0.0415917 0.0415214 0.0414507
0.0413798 0.0413086 0.0412372 0.0411655 0.0410935 0.0410213 0.0409488 0.040876 0.040803 0.0407297
0.0406561 0.0405823 0.0405082 0.0404339 0.0403592 0.0402843 0.0402092 0.0401337 0.040058 0.039982
0.0399057 0.0398291 0.0397522 0.039675 0.0395967 0.0395164 0.0394334 0.0393475 0.0392587 0.0391671
0.0390728 0.038976 0.0388769 0.0387758 0.0386729 0.0385684 0.0384626 0.0383556 0.0382476 0.0381389
0.0380295 0.0379196 0.0378093 0.0376987 0.037588 0.0374772 0.0373664 0.0372557 0.037145 0.0370346
0.0369244 0.0368144 0.0367047 0.0365952 0.0364861 0.0363773 0.0362687 0.0361605 0.0360525 0.0359448
0.0358374 0.0357303 0.0356234 0.0355168 0.0354104 0.0353042 0.0351982 0.0350925 0.0349871 0.0348823
0.0347781 0.0346747 0.0345723 0.0344709 0.0343705 0.0342712 0.0341729 0.0340756 0.0339792 0.0338836
0.0337887 0.0336945 0.0336007 0.0335074 0.0334143 0.0333215 0.0332287 0.033136 0.0330432 0.0329504
0.0328573 0.0327641 0.0326706 0.0325769 0.0324829 0.0323886 0.032294 0.0321992 0.032104 0.0320086
0.031913 0.0318171 0.031721 0.0316247 0.0315282 0.0314315 0.0313347 0.0312378 0.0311407 0.0310435
0.0309463 0.030849 0.0307517 0.0306544 0.0305571 0.0304598 0.0303626 0.0302654 0.0301683 0.0300712
0.0299741 0.0298771 0.0297802 0.0296834 0.0295866 0.0294898 0.0293932 0.0292966 0.0292 0.0291035
0.0290071 0.0289107 0.0288144 0.0287182 0.0286221 0.028526 0.02843 0.0283342 0.0282384 0.0281428
0.0280473 0.027952 0.0278569 0.027762 0.0276673 0.0275728 0.0274785 0.0273845 0.0272907 0.0271972
0.027104 0.027011 0.0269184 0.026826 0.0267339 0.0266421 0.0265507 0.0264595 0.0263688 0.0262784
0.0261884 0.0260988 0.0260098 0.0259211 0.025833 0.0257453 0.0256582 0.0255715 0.0254854 0.0253997
0.0253145 0.0252297 0.0251454 0.0250615 0.024978 0.0248948 0.0248121 0.0247296 0.0246475 0.0245657
0.0244841 0.0244028 0.0243218 0.024241 0.0241605 0.0240801 0.024 0.0239202 0.0238405 0.0237611
0.0236819 0.023603 0.0235242 0.0234457 0.0233674 0.0232893 0.0232115 0.0231338 0.0230564 0.0229792
0.0229022 0.0228254 0.0227489 0.0226726 0.0225965 0.0225206 0.0224449 0.0223695 0.0222944 0.0222195
0.0221448 0.0220704 0.0219962 0.0219223 0.0218486 0.0217751 0.0217019 0.0216289 0.0215561 0.0214835
0.0214111 0.0213388 0.0212668 0.0211949 0.0211231 0.0210516 0.0209802 0.0209089 0.0208379 0.020767
0.0206963 0.0206259 0.0205556 0.0204855 0.0204156 0.0203459 0.0202764 0.0202071 0.0201381 0.0200693
0.0200006 0.0199323 0.0198641 0.0197962 0.0197285 0.0196611 0.0195939 0.0195269 0.0194602 0.0193937
0.0193275 0.0192615 0.0191958 0.0191303 0.019065 0.019 0.0189352 0.0188706 0.0188063 0.0187421
0.0186782 0.0186145 0.0185509 0.0184876 0.0184245 0.0183615 0.0182988 0.0182362 0.0181739 0.0181117
0.0180497 0.0179879 0.0179264 0.017865 0.0178038 0.0177428 0.017682 0.0176215 0.0175611 0.017501
0.0174411 0.0173814 0.017322 0.0172628 0.0172038 0.0171451 0.0170866 0.0170284 0.0169704 0.0169126