# vtk DataFile Version 2.0
sampleSurface
ASCII
DATASET POLYDATA
POINTS 4338 double
-0.000152 0 0.001
-0.000152 0 -0.001
0 -0.00025 0.001
0 -0.00025 -0.001
-0.000456 0 -0.001
-0.000456 0 0.001
0 -0.0005 0.001
0 -0.0005 -0.001
0 -0.00075 0.001
0 -0.00075 -0.001
-0.00076 0 -0.001
-0.00076 0 0.001
0 -0.001 0.001
0 -0.001 -0.001
-0.001064 0 -0.001
-0.001064 0 0.001
0 -0.00125 0.001
0 -0.00125 -0.001
-0.001368 0 -0.001
-0.001368 0 0.001
0 -0.0015 0.001
0 -0.0015 -0.001
-0.001672 0 -0.001
-0.001672 0 0.001
0 -0.00175 0.001
0 -0.00175 -0.001
-0.001976 0 -0.001
-0.001976 0 0.001
0 -0.002 0.001
0 -0.002 -0.001
0 -0.00225 0.001
0 -0.00225 -0.001
-0.00228 0 -0.001
-0.00228 0 0.001
0 -0.0025 0.001
0 -0.0025 -0.001
-0.002584 0 -0.001
-0.002584 0 0.001
0 -0.00275 0.001
0 -0.00275 -0.001
-0.002888 0 -0.001
-0.002888 0 0.001
0 -0.003 0.001
0 -0.003 -0.001
-0.003192 0 -0.001
-0.003192 0 0.001
0 -0.00325 0.001
0 -0.00325 -0.001
-0.003496 0 -0.001
-0.003496 0 0.001
0 -0.0035 0.001
0 -0.0035 -0.001
0 -0.00375 0.001
0 -0.00375 -0.001
-0.0038 0 -0.001
-0.0038 0 0.001
0 -0.004 0.001
0 -0.004 -0.001
-0.004104 0 -0.001
-0.004104 0 0.001
0 -0.00425 0.001
0 -0.00425 -0.001
-0.004408 0 -0.001
-0.004408 0 0.001
0 -0.0045 0.001
0 -0.0045 -0.001
-0.004712 0 -0.001
-0.004712 0 0.001
0 -0.00475 0.001
0 -0.00475 -0.001
0 -0.005 0.001
0 -0.005 -0.001
-0.005016 0 -0.001
-0.005016 0 0.001
0 -0.00525 0.001
0 -0.00525 -0.001
-0.00532 0 -0.001
-0.00532 0 0.001
0 -0.0055 0.001
0 -0.0055 -0.001
-0.005624 0 -0.001
-0.005624 0 0.001
0 -0.00575 0.001
0 -0.00575 -0.001
-0.005928 0 -0.001
-0.005928 0 0.001
0 -0.006 0.001
0 -0.006 -0.001
-0.006232 0 -0.001
-0.006232 0 0.001
0 -0.00625 0.001
0 -0.00625 -0.001
0 -0.0065 0.001
0 -0.0065 -0.001
-0.006536 0 -0.001
-0.006536 0 0.001
0 -0.00675 0.001
0 -0.00675 -0.001
-0.00684 0 -0.001
-0.00684 0 0.001
0 -0.007 0.001
0 -0.007 -0.001
-0.007144 0 -0.001
-0.007144 0 0.001
0 -0.00725 0.001
0 -0.00725 -0.001
-0.007448 0 -0.001
-0.007448 0 0.001
0 -0.0075 0.001
0 -0.0075 -0.001
0 -0.00775 0.001
0 -0.00775 -0.001
-0.007752 0 -0.001
-0.007752 0 0.001
0 -0.008 0.001
0 -0.008 -0.001
-0.008056 0 -0.001
-0.008056 0 0.001
0 -0.00825 0.001
0 -0.00825 -0.001
-0.00836 0 -0.001
-0.00836 0 0.001
0 -0.0085 0.001
0 -0.0085 -0.001
-0.008664 0 -0.001
-0.008664 0 0.001
0 -0.00875 0.001
0 -0.00875 -0.001
-0.008968 0 -0.001
-0.008968 0 0.001
0 -0.009 0.001
0 -0.009 -0.001
0 -0.00925 0.001
0 -0.00925 -0.001
-0.009272 0 -0.001
-0.009272 0 0.001
0 -0.0095 0.001
0 -0.0095 -0.001
-0.009576 0 -0.001
-0.009576 0 0.001
0 -0.00975 0.001
0 -0.00975 -0.001
-0.00988 0 -0.001
-0.00988 0 0.001
0 -0.01 0.001
0 -0.01 -0.001
-0.010184 0 -0.001
-0.010184 0 0.001
0 -0.01025 0.001
0 -0.01025 -0.001
-0.010488 0 -0.001
-0.010488 0 0.001
0 -0.0105 0.001
0 -0.0105 -0.001
0 -0.01075 0.001
0 -0.01075 -0.001
-0.010792 -5.78241e-19 -0.001
-0.010792 -5.78241e-19 0.001
0 -0.011 0.001
0 -0.011 -0.001
-0.011096 0 -0.001
-0.011096 0 0.001
0 -0.01125 0.001
0 -0.01125 -0.001
-0.0114 0 -0.001
-0.0114 0 0.001
0 -0.0115 0.001
0 -0.0115 -0.001
-0.011704 0 -0.001
-0.011704 0 0.001
0 -0.01175 0.001
0 -0.01175 -0.001
0 -0.012 0.001
0 -0.012 -0.001
-0.012008 0 -0.001
-0.012008 0 0.001
0 -0.01225 0.001
0 -0.01225 -0.001
-0.012312 0 -0.001
-0.012312 0 0.001
0 -0.0125 0.001
0 -0.0125 -0.001
-0.012616 0 -0.001
-0.012616 0 0.001
0 -0.01275 0.001
0 -0.01275 -0.001
-0.01292 0 -0.001
-0.01292 0 0.001
0 -0.013 0.001
0 -0.013 -0.001
-0.013224 0 -0.001
-0.013224 0 0.001
0 -0.01325 0.001
0 -0.01325 -0.001
0 -0.0135 0.001
0 -0.0135 -0.001
-0.013528 0 -0.001
-0.013528 0 0.001
0 -0.01375 0.001
0 -0.01375 -0.001
-0.013832 0 -0.001
-0.013832 0 0.001
0 -0.014 0.001
0 -0.014 -0.001
-0.014136 0 -0.001
-0.014136 0 0.001
0 -0.01425 0.001
0 -0.01425 -0.001
-0.01444 0 -0.001
-0.01444 0 0.001
0 -0.0145 0.001
0 -0.0145 -0.001
-0.014744 0 -0.001
-0.014744 0 0.001
0 -0.01475 0.001
0 -0.01475 -0.001
0 -0.015 0.001
0 -0.015 -0.001
-0.015048 0 -0.001
-0.015048 0 0.001
0 -0.01525 0.001
0 -0.01525 -0.001
-0.015352 0 -0.001
-0.015352 0 0.001
0 -0.0155 0.001
0 -0.0155 -0.001
-0.015656 0 -0.001
-0.015656 0 0.001
0 -0.01575 0.001
0 -0.01575 -0.001
-0.01596 0 -0.001
-0.01596 0 0.001
0 -0.016 0.001
0 -0.016 -0.001
0 -0.01625 0.001
0 -0.01625 -0.001
-0.016264 0 -0.001
-0.016264 0 0.001
0 -0.0165 0.001
0 -0.0165 -0.001
-0.016568 0 -0.001
-0.016568 0 0.001
0 -0.01675 0.001
0 -0.01675 -0.001
-0.016872 0 -0.001
-0.016872 0 0.001
0 -0.017 0.001
0 -0.017 -0.001
-0.017176 0 -0.001
-0.017176 0 0.001
0 -0.01725 0.001
0 -0.01725 -0.001
-0.01748 0 -0.001
-0.01748 0 0.001
0 -0.0175 0.001
0 -0.0175 -0.001
0 -0.01775 0.001
0 -0.01775 -0.001
-0.017784 0 -0.001
-0.017784 0 0.001
0 -0.018 0.001
0 -0.018 -0.001
-0.018088 0 -0.001
-0.018088 0 0.001
0 -0.01825 0.001
0 -0.01825 -0.001
-0.018392 0 -0.001
-0.018392 0 0.001
0 -0.0185 0.001
0 -0.0185 -0.001
-0.018696 0 -0.001
-0.018696 0 0.001
0 -0.01875 0.001
0 -0.01875 -0.001
0 -0.019 0.001
0 -0.019 -0.001
-0.019 0 -0.001
-0.019 0 0.001
0 -0.01925 0.001
0 -0.01925 -0.001
0 -0.0195 0.001
0 -0.0195 -0.001
0 -0.01975 0.001
0 -0.01975 -0.001
0 -0.02 0.001
0 -0.02 -0.001
0 -0.02025 0.001
0 -0.02025 -0.001
0 -0.0205 0.001
0 -0.0205 -0.001
0 -0.02075 0.001
0 -0.02075 -0.001
0 -0.021 0.001
0 -0.021 -0.001
0 -0.02125 0.001
0 -0.02125 -0.001
0 -0.0215 0.001
0 -0.0215 -0.001
0 -0.02175 0.001
0 -0.02175 -0.001
0 -0.022 0.001
0 -0.022 -0.001
0 -0.02225 0.001
0 -0.02225 -0.001
0 -0.0225 0.001
0 -0.0225 -0.001
0 -0.02275 0.001
0 -0.02275 -0.001
0 -0.023 0.001
0 -0.023 -0.001
0 -0.02325 0.001
0 -0.02325 -0.001
0 -0.0235 0.001
0 -0.0235 -0.001
0 -0.02375 0.001
0 -0.02375 -0.001
0 -0.024 0.001
0 -0.024 -0.001
0 -0.02425 0.001
0 -0.02425 -0.001
0 -0.0245 0.001
0 -0.0245 -0.001
0 -0.02475 0.001
0 -0.02475 -0.001
0 -0.025 0.001
0 -0.025 -0.001
1.00662e-06 -0.02525 0.001
1.00662e-06 -0.02525 -0.001
0.000152 -0.0254 -0.001
0.000152 -0.0254 0.001
-0.000152 0.0254 0.001
-0.000152 0.0254 -0.001
0.000152 0.0254 0.001
0.000152 0.0254 -0.001
0.000456 -0.0254 0.001
0.000456 -0.0254 -0.001
-0.000456 0.0254 0.001
-0.000456 0.0254 -0.001
0.000456 0.0254 0.001
0.000456 0.0254 -0.001
0.00076 -0.0254 0.001
0.00076 -0.0254 -0.001
-0.00076 0.0254 0.001
-0.00076 0.0254 -0.001
0.00076 0.0254 0.001
0.00076 0.0254 -0.001
0.001064 -0.0254 0.001
0.001064 -0.0254 -0.001
-0.001064 0.0254 0.001
-0.001064 0.0254 -0.001
0.001064 0.0254 0.001
0.001064 0.0254 -0.001
0.001368 -0.0254 0.001
0.001368 -0.0254 -0.001
-0.001368 0.0254 0.001
-0.001368 0.0254 -0.001
0.001368 0.0254 0.001
0.001368 0.0254 -0.001
0.001672 -0.0254 0.001
0.001672 -0.0254 -0.001
-0.001672 0.0254 0.001
-0.001672 0.0254 -0.001
0.001672 0.0254 0.001
0.001672 0.0254 -0.001
0.001976 -0.0254 0.001
0.001976 -0.0254 -0.001
-0.001976 0.0254 0.001
-0.001976 0.0254 -0.001
0.001976 0.0254 0.001
0.001976 0.0254 -0.001
0.00228 -0.0254 0.001
0.00228 -0.0254 -0.001
-0.00228 0.0254 0.001
-0.00228 0.0254 -0.001
0.00228 0.0254 0.001
0.00228 0.0254 -0.001
0.002584 -0.0254 0.001
0.002584 -0.0254 -0.001
-0.002584 0.0254 0.001
-0.002584 0.0254 -0.001
0.002584 0.0254 0.001
0.002584 0.0254 -0.001
0.002888 -0.0254 0.001
0.002888 -0.0254 -0.001
-0.002888 0.0254 0.001
-0.002888 0.0254 -0.001
0.002888 0.0254 0.001
0.002888 0.0254 -0.001
0.003192 -0.0254 0.001
0.003192 -0.0254 -0.001
-0.003192 0.0254 0.001
-0.003192 0.0254 -0.001
0.003192 0.0254 0.001
0.003192 0.0254 -0.001
0.003496 -0.0254 0.001
0.003496 -0.0254 -0.001
-0.003496 0.0254 0.001
-0.003496 0.0254 -0.001
0.003496 0.0254 0.001
0.003496 0.0254 -0.001
0.0038 -0.0254 0.001
0.0038 -0.0254 -0.001
-0.0038 0.0254 0.001
-0.0038 0.0254 -0.001
0.0038 0.0254 0.001
0.0038 0.0254 -0.001
0.004104 -0.0254 0.001
0.004104 -0.0254 -0.001
-0.004104 0.0254 0.001
-0.004104 0.0254 -0.001
0.004104 0.0254 0.001
0.004104 0.0254 -0.001
0.004408 -0.0254 0.001
0.004408 -0.0254 -0.001
-0.004408 0.0254 0.001
-0.004408 0.0254 -0.001
0.004408 0.0254 0.001
0.004408 0.0254 -0.001
0.004712 -0.0254 0.001
0.004712 -0.0254 -0.001
-0.004712 0.0254 0.001
-0.004712 0.0254 -0.001
0.004712 0.0254 0.001
0.004712 0.0254 -0.001
0.005016 -0.0254 0.001
0.005016 -0.0254 -0.001
-0.005016 0.0254 0.001
-0.005016 0.0254 -0.001
0.005016 0.0254 0.001
0.005016 0.0254 -0.001
0.00532 -0.0254 0.001
0.00532 -0.0254 -0.001
-0.00532 0.0254 0.001
-0.00532 0.0254 -0.001
0.00532 0.0254 0.001
0.00532 0.0254 -0.001
0.005624 -0.0254 0.001
0.005624 -0.0254 -0.001
-0.005624 0.0254 0.001
-0.005624 0.0254 -0.001
0.005624 0.0254 0.001
0.005624 0.0254 -0.001
0.005928 -0.0254 0.001
0.005928 -0.0254 -0.001
-0.005928 0.0254 0.001
-0.005928 0.0254 -0.001
0.005928 0.0254 0.001
0.005928 0.0254 -0.001
0.006232 -0.0254 0.001
0.006232 -0.0254 -0.001
-0.006232 0.0254 0.001
-0.006232 0.0254 -0.001
0.006232 0.0254 0.001
0.006232 0.0254 -0.001
0.006536 -0.0254 0.001
0.006536 -0.0254 -0.001
-0.006536 0.0254 0.001
-0.006536 0.0254 -0.001
0.006536 0.0254 0.001
0.006536 0.0254 -0.001
0.00684 -0.0254 0.001
0.00684 -0.0254 -0.001
-0.00684 0.0254 0.001
-0.00684 0.0254 -0.001
0.00684 0.0254 0.001
0.00684 0.0254 -0.001
0.007144 -0.0254 0.001
0.007144 -0.0254 -0.001
-0.007144 0.0254 0.001
-0.007144 0.0254 -0.001
0.007144 0.0254 0.001
0.007144 0.0254 -0.001
0.007448 -0.0254 0.001
0.007448 -0.0254 -0.001
-0.007448 0.0254 0.001
-0.007448 0.0254 -0.001
0.007448 0.0254 0.001
0.007448 0.0254 -0.001
0.007752 -0.0254 0.001
0.007752 -0.0254 -0.001
-0.007752 0.0254 0.001
-0.007752 0.0254 -0.001
0.007752 0.0254 0.001
0.007752 0.0254 -0.001
0.008056 -0.0254 0.001
0.008056 -0.0254 -0.001
-0.008056 0.0254 0.001
-0.008056 0.0254 -0.001
0.008056 0.0254 0.001
0.008056 0.0254 -0.001
0.00836 -0.0254 0.001
0.00836 -0.0254 -0.001
-0.00836 0.0254 0.001
-0.00836 0.0254 -0.001
0.00836 0.0254 0.001
0.00836 0.0254 -0.001
0.008664 -0.0254 0.001
0.008664 -0.0254 -0.001
-0.008664 0.0254 0.001
-0.008664 0.0254 -0.001
0.008664 0.0254 0.001
0.008664 0.0254 -0.001
0.008968 -0.0254 0.001
0.008968 -0.0254 -0.001
-0.008968 0.0254 0.001
-0.008968 0.0254 -0.001
0.008968 0.0254 0.001
0.008968 0.0254 -0.001
0.009272 -0.0254 0.001
0.009272 -0.0254 -0.001
[...]
CELL_DATA 2113
FIELD attributes 1
p 1 2113 double
-8.7599 -8.75996 -8.76001 -8.76002 -8.75994 -8.75979 -8.75954 -8.75919 -8.75875 -8.75825
-8.75774 -8.75726 -8.75686 -8.75657 -8.75642 -8.7564 -8.75651 -8.75672 -8.75703 -8.75741
-8.75783 -8.75827 -8.75871 -8.75914 -8.75954 -8.7599 -8.76021 -8.76047 -8.76067 -8.76082
-8.76093 -8.76099 -8.761 -8.76097 -8.76091 -8.76084 -8.76075 -8.76067 -8.76059 -8.76052
-8.76047 -8.76046 -8.76048 -8.76054 -8.76066 -8.76085 -8.7611 -8.76144 -8.76187 -8.76241
-8.76306 -8.76384 -8.76475 -8.76581 -8.76702 -8.7684 -8.76995 -8.77168 -8.77358 -8.77565
-8.77788 -8.78025 -8.78276 -8.78543 -8.78824 -8.7912 -8.7943 -8.79755 -8.80095 -8.80453
-8.80828 -8.81222 -8.81636 -8.82071 -8.82528 -8.83006 -8.83508 -8.84032 -8.8458 -8.85151
-8.85746 -8.86364 -8.87007 -8.87673 -8.88362 -8.89075 -8.89811 -8.9057 -8.91352 -8.92157
-8.92985 -8.93835 -8.94706 -8.956 -8.96514 -8.97449 -8.98404 -8.99379 -9.00371 -9.01381
-9.02408 -9.03451 -9.04511 -9.05588 -9.0668 -9.07787 -9.08909 -9.10045 -9.11194 -9.12355
-9.13529 -9.14714 -9.1591 -9.17116 -9.18332 -9.19557 -9.20791 -9.22033 -9.23283 -9.24539
-9.25802 -9.27071 -9.28346 -9.29625 -9.30909 -9.32197 -9.33488 -9.34781 -9.36076 -9.37372
-9.38669 -9.39965 -9.41261 -9.42556 -9.43849 -9.4514 -9.46427 -9.47711 -9.48991 -9.50265
-9.51534 -9.52796 -9.54051 -9.55299 -9.56538 -9.57769 -9.58989 -9.60198 -9.61396 -9.62581
-9.63753 -9.6491 -9.66053 -9.6718 -9.6829 -9.69383 -9.70458 -9.71516 -9.72556 -9.73577
-9.74577 -9.75556 -9.76512 -9.77445 -9.78353 -9.79237 -9.80095 -9.80926 -9.8173 -9.82506
-9.83252 -9.83969 -9.84655 -9.85309 -9.85931 -9.8652 -9.87075 -9.87596 -9.88081 -9.88529
-9.88941 -9.89315 -9.89652 -9.89949 -9.90206 -9.90421 -9.90604 -9.90765 -9.9087 -9.90901
-9.9088 -9.90824 -9.90735 -9.906 -9.90418 -9.90189 -9.89913 -9.89587 -9.89213 -9.88789
-9.88315 -9.8779 -9.87214 -9.86587 -9.85907 -9.85174 -9.84387 -9.83548 -9.82654 -9.81706
-9.80703 -9.79645 -9.78531 -9.77362 -9.76136 -9.74855 -9.73516 -9.72121 -9.70668 -9.69158
-9.6759 -9.65965 -9.64282 -9.6254 -9.6074 -9.58882 -9.56965 -9.54989 -9.52955 -9.50861
-9.48709 -9.46498 -9.44228 -9.41899 -9.39512 -9.37065 -9.3456 -9.31996 -9.29373 -9.26692
-9.23952 -9.21154 -9.18299 -9.15385 -9.12413 -9.09384 -9.06297 -9.03153 -8.99951 -8.96692
-8.93377 -8.90004 -8.86576 -8.83092 -8.79552 -8.75957 -8.72308 -8.68603 -8.64845 -8.61033
-8.57167 -8.53248 -8.49276 -8.45252 -8.41177 -8.37049 -8.32872 -8.28645 -8.24368 -8.20043
-8.15668 -8.11244 -8.06771 -8.02251 -7.97683 -7.93069 -7.88408 -7.83702 -7.7895 -7.74152
-7.6931 -7.64424 -7.59492 -7.54517 -7.49499 -7.4444 -7.3934 -7.342 -7.29019 -7.23799
-7.1854 -7.13242 -7.07907 -7.02533 -6.97123 -6.91676 -6.86194 -6.80677 -6.75126 -6.69541
-6.63923 -6.58273 -6.52591 -6.46876 -6.4113 -6.35354 -6.29548 -6.23712 -6.17847 -6.11954
-6.06033 -6.00085 -5.94111 -5.88111 -5.82085 -5.76034 -5.6996 -5.63861 -5.5774 -5.51596
-5.45431 -5.39244 -5.33036 -5.26808 -5.20559 -5.14291 -5.08004 -5.01698 -4.95375 -4.89034
-4.82677 -4.76305 -4.69917 -4.63514 -4.57097 -4.50666 -4.44221 -4.37764 -4.31295 -4.24814
-4.18322 -4.11819 -4.05306 -3.98783 -3.92251 -3.85711 -3.79162 -3.72605 -3.66042 -3.59471
-3.52894 -3.46312 -3.39724 -3.33131 -3.26533 -3.19932 -3.13327 -3.06719 -3.00108 -2.93496
-2.86881 -2.80265 -2.73648 -2.67031 -2.60414 -2.53797 -2.4718 -2.40565 -2.33951 -2.2734
-2.2073 -2.14123 -2.0752 -2.00919 -1.94323 -1.87731 -1.81143 -1.7456 -1.67982 -1.6141
-1.54845 -1.48286 -1.41735 -1.35191 -1.28653 -1.22124 -1.15602 -1.09089 -1.02584 -0.960887
-0.896022 -0.831252 -0.766581 -0.702011 -0.637545 -0.573187 -0.508938 -0.444803 -0.380782 -0.31688
-0.253098 -0.18944 -0.125908 -0.0625039 0.000769255 0.0639092 0.126913 0.18978 0.252506 0.31509
0.377528 0.43982 0.501963 0.563955 0.625794 0.687478 0.749004 0.810371 0.871577 0.93262
0.993498 1.05421 1.11475 1.17513 1.23533 1.29535 1.35521 1.41488 1.47438 1.53369
1.59282 1.65177 1.71053 1.76911 1.82752 1.88574 1.94378 2.00164 2.05929 2.11676
2.17403 2.23111 2.28799 2.34467 2.40116 2.45745 2.51354 2.56942 2.62511 2.6806
2.73588 2.79096 2.84583 2.9005 2.95497 3.00923 3.06328 3.11713 3.17076 3.22419
3.27741 3.33042 3.38323 3.43582 3.4882 3.54037 3.59232 3.64407 3.69561 3.74693
3.79804 3.84894 3.89962 3.9501 4.00036 4.0504 4.10024 4.14986 4.19926 4.24844
4.29741 4.34617 4.39471 4.44304 4.49115 4.53905 4.58674 4.63421 4.68148 4.72852
4.77536 4.82198 4.86838 4.91458 4.96056 5.00633 5.05188 5.09723 5.14236 5.18728
5.23199 5.27648 5.32077 5.36485 5.40872 5.45237 5.49582 5.53906 5.58209 5.62491
5.66752 5.70993 5.75213 5.79412 5.83591 5.87749 5.91887 5.96004 6.001 6.04177
6.08233 6.12268 6.16284 6.20279 6.24254 6.28209 6.32144 6.36058 6.39953 6.43826
6.47679 6.51513 6.55331 6.59129 6.62908 6.66667 6.70406 6.74125 6.77825 6.81506
6.85168 6.8881 6.92433 6.96037 6.99622 7.03189 7.06738 7.10269 7.13781 7.17273
7.20747 7.24202 7.27636 7.3105 7.34448 7.3783 7.41194 7.44539 7.47867 7.51176
7.54467 7.57741 7.60997 7.64235 7.67456 7.70659 7.73844 7.77011 7.80161 7.83295
7.86413 7.89513 7.92595 7.9566 7.98708 8.01739 8.04753 8.0775 8.1073 8.13695
8.16643 8.19574 8.22489 8.25388 8.2827 8.31136 8.33985 8.36819 8.39636 8.42437
8.45222 8.47991 8.50745 8.53482 8.56204 8.5891 8.616 8.64275 8.66934 8.69578
8.72206 8.74819 8.77417 8.79999 8.82566 8.85118 8.87655 8.90177 8.92684 8.95176
8.97653 9.00115 9.02563 9.04996 9.07414 9.09818 9.12207 9.14581 9.16942 9.19288
9.21619 9.23937 9.2624 9.28529 9.30805 9.33066 9.35313 9.37547 9.39767 9.41973
9.44166 9.46346 9.48512 9.50665 9.52804 9.54931 9.57045 9.59146 9.61235 9.63311
9.65375 9.67426 9.69466 9.71495 9.73512 9.75517 9.77512 9.79497 9.81471 9.83436
9.85392 9.87339 9.89279 9.91211 9.93137 9.95057 9.96974 9.98888 10.008 10.0271
10.0463 10.0655 10.0848 10.1042 10.1238 10.1437 10.1638 10.1844 10.2055 10.2272
10.2497 10.2732 10.2981 10.3246 10.3533 10.3848 10.4199 10.46 10.5044 10.5346
10.5544 10.5714 10.5817 -8.75986 10.6174 10.6313 10.6383 10.6358 10.6347 10.6392
10.6514 10.6717 -8.75981 10.7115 10.6899 10.6769 10.6748 10.676 10.6798 10.6911
10.7104 -8.75981 10.7426 10.7674 10.7677 10.7498 10.729 10.7173 10.7152 10.7197
-8.75986 10.798 10.868 10.8726 10.8253 10.771 10.7422 10.7338 10.7398 -8.75996
10.8301 10.8708 10.8553 10.8036 10.7602 10.7375 10.733 10.7507 -8.76008 10.8359
10.8459 10.8083 10.7589 10.7292 10.7134 10.7116 10.7418 -8.76023 10.832 10.8031
10.7555 10.7116 10.6839 10.6687 10.6697 10.7118 -8.76037 10.8108 10.7507 10.6873
10.6427 10.6163 10.6017 10.6077 10.6599 -8.7605 10.766 10.6691 10.5867 10.5421
10.5156 10.4991 10.5058 10.5524 -8.76063 10.6263 10.6503 10.5946 10.5213 10.4611
10.4184 10.392 10.3798 -8.76076 10.5463 10.6481 10.6201 10.4915 10.3701 10.2992
10.2593 10.2593 -8.7609 10.4314 10.4723 10.4028 10.2851 10.1928 10.1325 10.1002
10.1287 -8.76105 10.3015 10.2805 10.1807 10.0687 9.99124 9.94134 9.91752 9.96978
-8.76121 10.1609 10.0785 9.95928 9.84973 9.77645 9.72874 9.71108 9.78475 -8.7614
9.99022 9.85225 9.70692 9.60046 9.53011 9.48068 9.46551 9.53806 -8.7616 9.65834
9.71471 9.61473 9.48002 9.36576 9.28634 9.2307 9.21374 9.29674 -8.76182 9.43998
9.47785 9.35099 9.19531 9.07422 8.98918 8.93018 8.90726 -8.76206 9.18306 9.278
9.18574 8.9926 8.82013 8.70183 8.62586 8.61999 -8.76231 8.91189 8.95052 8.80375
8.59582 8.44406 8.34418 8.27883 8.30631 -8.76257 8.62457 8.54799 8.37656 8.1943
8.05791 7.96472 7.90922 7.98396 -8.76282 8.3203 8.1654 7.95736 7.77023 7.64585
7.56016 7.51536 7.626 -8.76307 7.98455 7.74011 7.49437 7.32083 7.20621 7.12127
7.08208 7.19016 -8.76331 7.38598 7.4578 7.26931 7.03904 6.8628 6.74474 6.6616
6.5901 -8.76354 6.98715 7.21287 7.11426 6.79303 6.49582 6.31332 6.18807 6.12798
-8.76373 6.55401 6.67125 6.49764 6.19748 5.94637 5.77844 5.66056 5.64478 -8.76391
6.09167 6.11277 5.85951 5.54362 5.33008 5.19175 5.08875 5.12699 -8.76404 5.62087
5.47596 5.20718 4.93484 4.7319 4.58892 4.49072 4.5792 -8.76408 5.11739 4.8596
4.54067 4.26075 4.0755 3.94198 3.85654 3.99413 -8.76403 4.57368 4.1811 3.80728
3.55121 3.38137 3.24805 3.16661 3.31968 -8.7639 3.60895 3.70193 3.40538 3.05378
2.78943 2.61434 2.48036 2.39141 -8.7637 2.91724 3.10058 2.85327 2.43877 2.08635
1.84391 1.65636 1.56058 -8.76343 2.1431 2.2079 1.85712 1.40367 1.05582 0.806633
0.591653 0.460936 -8.76307 1.15213 1.00383 0.621824 0.119063 -8.76263 -8.76209 -8.76147
-8.76075 -8.75995 -8.75906 -8.75809 -8.75705 -8.75595 -8.75478 -8.75355 -8.75227 -8.75095
-8.74959 -8.74819 -8.74677 -8.74532 -8.74385 -8.74236 -8.74086 -8.73935 -8.73784 -8.73634
-8.73484 -8.73336 -8.73189 -8.73044 -8.72902 -8.72764 -8.72628 -8.72497 -8.7237 -8.72247
-8.72129 -8.72015 -8.71908 -8.71806 -8.71711 -8.71622 -8.71541 -8.71468 -8.71403 -8.71347
-8.71301 -8.71266 -8.71241 -8.71229 -8.71228 -8.71241 -8.71269 -8.71312 -8.71371 -8.71448
-8.71544 -8.7166 -8.71797 -8.71956 -8.72141 -8.72355 -8.72604 -8.72899 -8.73257 -8.737
-8.74285 -8.75219 -8.77107 -8.83105 -9.02822 0.991309 0.766668 0.368954 -0.00431869 1.58796
1.58636 1.18726 0.781262 0.593515 0.50376 0.429279 0.429037 2.18397 2.27973 1.9388
1.53443 1.32706 1.2263 1.15071 1.12018 2.77873 2.81911 2.44775 2.07253 1.90798
1.84171 1.79375 1.7673 3.61347 3.09724 2.67605 2.52817 2.47764 2.43046 2.39899
2.54257 4.11953 3.72335 3.33396 3.15597 3.08671 3.03505 3.00656 3.15442 4.5933
4.3149 3.96326 3.75538 3.6612 3.60192 3.56406 3.67495 5.01033 4.8724 4.56386
4.32698 4.20808 4.14262 4.09912 4.17264 5.4164 5.42571 5.12641 4.82534 4.69295
4.63421 4.59218 4.63859 5.79324 5.89854 5.66641 5.36477 5.20435 5.12864 5.07912
5.06643 6.20027 6.22763 5.93867 5.66186 5.54952 5.51114 5.48872 5.47293 6.77734
6.38502 6.07216 5.96977 5.94204 5.91945 5.90915 6.01802 7.13166 6.82491 6.52085
6.39281 6.3539 6.33043 6.32361 6.4581 7.45323 7.23797 6.9589 6.80627 6.74792
6.71781 6.70612 6.80861 7.7177 7.63348 7.38999 7.20739 7.12397 7.08496 7.066
7.12763 7.97576 7.99077 7.76092 7.53552 7.442 7.40685 7.38822 7.42258 8.2615
8.26435 8.02642 7.81037 7.73033 7.70685 7.69768 7.70763 8.53436 8.5597 8.32436
8.10746 8.02694 8.00755 8.00111 8.00334 8.10455 8.9531 8.64476 8.39538 8.31598
8.29949 8.29073 8.29326 8.38742 9.20925 8.96969 8.72282 8.61787 8.58999 8.579
8.58383 8.69928 9.43718 9.2834 9.0555 8.92428 8.87578 8.85619 8.85335 8.94485
9.63567 9.59892 9.38585 9.21309 9.14297 9.11716 9.11015 9.18216 9.82762 9.87539
9.6975 9.49834 9.40638 9.37017 9.35528 9.37848 10.0569 10.0669 9.86066 9.67214
9.60244 9.58425 9.581 9.59208 10.446 10.1354 9.90763 9.84322 9.83049 9.82388
9.8304 9.92125 10.6963 10.4449 10.2127 10.122 10.0969 10.0852 10.0954 10.2164
10.9389 10.7613 10.5434 10.4202 10.3698 10.3456 10.3434 10.446 11.1694 11.0903
10.8954 10.7368 10.6553 10.6153 10.602 10.6776 11.4241 11.4587 11.2732 11.0572
10.9468 10.8946 10.8683 10.9132 11.6933 11.7965 11.6567 11.4278 11.2842 11.2085
11.1658 11.1649 12.0107 12.0398 11.8507 11.6467 11.541 11.4886 11.4572 11.4404
12.5128 12.2805 12.0644 11.9466 11.8764 11.8232 11.8029 11.8799 12.8892 12.7238
12.5454 12.4251 12.3419 12.2708 12.2274 12.2938 -2.67398 -4.10437 -4.82612 -5.05745
-5.20646 -5.36968 -5.52681 -5.65991 -5.77378 -5.87761 -5.97609 -6.06984 -6.15793 -6.24387
-6.34168 -6.45346 -6.56798 -6.68304 -6.80256 -6.92971 -7.06564 -7.2001 -7.32179 -7.43063
-7.52968 -7.62034 -7.70275 -7.77696 -7.84319 -7.90177 -7.95303 -7.99738 -8.03523 -8.0671
-8.09345 -8.11481 -8.13171 -8.14457 -8.15419 -8.16179 -8.16782 -8.17224 -8.17494 -8.17582
-8.17563 -8.17139 -8.15637 -8.12637 -8.08927 -8.05333 -8.01874 -7.98504 -7.9535 -7.92532
-7.90089 -7.88013 -7.86274 -7.8484 -7.83672 -7.82738 -7.82006 -7.8145 -7.81037 -7.80742
-7.80544 -7.80472 -7.80589 -7.80903 -7.81378 -7.81894 -7.82406 -7.82918 -7.83468 -7.84112
-7.84866 -7.85717 -7.86651 -7.87657 -7.88736 -7.89874 -7.91062 -7.92281 -7.93522 -7.94759
-7.95994 -7.97244 -7.98516 -7.9981 -8.01123 -8.02453 -8.03797 -8.0515 -8.06506 -8.07861
-8.09211 -8.10552 -8.11879 -8.1319 -8.14482 -8.15752 -8.16998 -8.18218 -8.1941 -8.20573
-8.21706 -8.22807 -8.23878 -8.24918 -8.25928 -8.2691 -8.27863 -8.28789 -8.29688 -8.30563
-8.31414 -8.32244 -8.33053 -8.3384 -8.34605 -8.35349 -8.36071 -8.36773 -8.37452 -8.38111
-8.38748 -8.39363 -8.39958 -8.40532 -8.41085 -8.41619 -8.42133 -8.42623 -8.43083 -8.43509
-8.43901 -8.44259 -8.44585 -8.44881 -8.45152 -8.454 -8.45629 -8.45844 -8.46048 -8.46244
-8.46435 -8.46625 -8.46815 -8.47007 -8.47203 -8.47404 -8.4761 -8.47823 -8.48042 -8.48269
-8.48502 -8.48743 -8.4899 -8.49243 -8.49502 -8.49764 -8.5003 -8.50299 -8.50568 -8.50839
-8.51109 -8.51378 -8.51646 -8.5191 -8.52171 -8.52428 -8.5268 -8.52927 -8.53168 -8.53402
-8.5363 -8.5385 -8.54062 -8.54266 -8.54461 -8.54646 -8.54822 -8.54987 -8.55141 -8.55285
-8.55416 -8.55537 -8.55645 -8.55741 -8.55824 -8.55895 -8.55956 -8.56009 -8.56053 -8.56087
-8.56109 -8.56116 -8.56101 -8.56054 -8.55971 -8.55866 -8.55761 -8.55661 -8.55547 -8.55416
-8.55268 -8.55105 -8.54925 -8.54729 -8.54516 -8.54285 -8.54038 -8.53773 -8.5349 -8.53189
-8.52869 -8.52532 -8.52175 -8.51799 -8.51405 -8.5099 -8.50556 -8.50103 -8.49628 -8.49134
-8.48619 -8.48083 -8.47527 -8.46949 -8.46349 -8.45728 -8.45084 -8.44419 -8.43731 -8.4302
-8.42286 -8.41529 -8.40748 -8.39944 -8.39117 -8.38265 -8.37389 -8.36489 -8.35564 -8.34614
-8.33639 -8.32639 -8.31614 -8.30563 -8.29486 -8.28384 -8.27255 -8.26099 -8.24918 -8.23709
-8.22474 -8.21211 -8.19921 -8.18604 -8.1726 -8.15887 -8.14487 -8.13058 -8.11602 -8.10117
-8.08603 -8.07061 -8.0549 -8.0389 -8.02261 -8.00603 -7.98915 -7.97198 -7.95452 -7.93676
-7.9187 -7.90034 -7.88168 -7.86273 -7.84347 -7.82392 -7.80406 -7.7839 -7.76344 -7.74267
-7.7216 -7.70023 -7.67855 -7.65656 -7.63427 -7.61167 -7.58877 -7.56556 -7.54204 -7.51822
-7.49409 -7.46965 -7.4449 -7.41984 -7.39448 -7.3688 -7.34282 -7.31653 -7.28993 -7.26303
-7.23581 -7.20829 -7.18047 -7.15233 -7.1239 -7.09515 -7.06611 -7.03676 -7.0071 -6.97714
-6.94688 -6.91631 -6.88545 -6.85427 -6.8228 -6.79103 -6.75897 -6.72665 -6.69405 -6.66118
-6.62805 -6.59466 -6.561 -6.52707 -6.49288 -6.45842 -6.42369 -6.38869 -6.35343 -6.31789
-6.28209 -6.24602 -6.20967 -6.17306 -6.13617 -6.09902 -6.0616 -6.02391 -5.98595 -5.94773
-5.90924 -5.8705 -5.83149 -5.79222 -5.75269 -5.71291 -5.67288 -5.63259 -5.59206 -5.55128
-5.51025 -5.46899 -5.42748 -5.38574 -5.34376 -5.30156 -5.25912 -5.21647 -5.17359 -5.13049
-5.08717 -5.04362 -4.99985 -4.95586 -4.91165 -4.86721 -4.82256 -4.7777 -4.73262 -4.68734
-4.64185 -4.59616 -4.55027 -4.50419 -4.45792 -4.41147 -4.36484 -4.31804 -4.27107 -4.22392
-4.17662 -4.12915 -4.08153 -4.03376 -3.98584 -3.93777 -3.88956 -3.8412 -3.79271 -3.74409
-3.69534 -3.64646 -3.59745 -3.54832 -3.49908 -3.44971 -3.40024 -3.35065 -3.30095 -3.25115
-3.20124 -3.15123 -3.10112 -3.05091 -3.0006 -2.95021 -2.89972 -2.84914 -2.79848 -2.74773
-2.6969 -2.646 -2.59502 -2.54396 -2.49284 -2.44165 -2.39039 -2.33908 -2.2877 -2.23627
-2.18478 -2.13324 -2.08165 -2.03001 -1.97833 -1.9266 -1.87483 -1.82303 -1.77118 -1.71931
-1.6674 -1.61546 -1.56349 -1.51149 -1.45947 -1.40743 -1.35537 -1.30329 -1.25119 -1.19908
-1.14695 -1.09481 -1.04267 -0.990518 -0.938363 -0.886207 -0.834051 -0.781898 -0.729748 -0.677603
-0.625464 -0.573334 -0.521213 -0.469103 -0.417006 -0.364923 -0.312855 -0.260805 -0.208774 -0.156764
-0.104777 -0.0528153 -0.000880024 0.0510263 0.102902 0.154744 0.206551 0.258321 0.310052 0.361742
0.413389 0.464992 0.516549 0.568058 0.619518 0.670927 0.722284 0.773587 0.824834 0.876025
0.927158 0.978231 1.02924 1.08019 1.13108 1.1819 1.23266 1.28335 1.33397 1.38453
1.43501 1.48542 1.53576 1.58603 1.63622 1.68634 1.73638 1.78635 1.83623 1.88604
1.93577 1.98542 2.03499 2.08447 2.13388 2.18319 2.23243 2.28157 2.33063 2.37961
2.42849 2.47728 2.52598 2.57459 2.62311 2.67154 2.71987 2.7681 2.81625 2.86429
2.91225 2.9601 3.00786 3.05553 3.10309 3.15056 3.19794 3.24521 3.29239 3.33947
3.38646 3.43334 3.48013 3.52682 3.57341 3.61991 3.6663 3.7126 3.7588 3.80491
3.85091 3.89682 3.94262 3.98833 4.03395 4.07946 4.12487 4.17019 4.2154 4.26052
4.30554 4.35046 4.39528 4.44 4.48462 4.52914 4.57357 4.6179 4.66212 4.70625
4.75029 4.79422 4.83806 4.8818 4.92544 4.96899 5.01245 5.0558 5.09907 5.14224
5.18532 5.2283 5.2712 5.314 5.35671 5.39934 5.44187 5.48432 5.52668 5.56896
5.61115 5.65325 5.69527 5.73721 5.77906 5.82084 5.86253 5.90415 5.94568 5.98714
6.02852 6.06983 6.11106 6.15221 6.19329 6.2343 6.27524 6.31611 6.35691 6.39764
6.4383 6.4789 6.51943 6.55989 6.6003 6.64064 6.68092 6.72114 6.76131 6.80141
6.84146 6.88146 6.9214 6.9613 7.00114 7.04094 7.08068 7.12039 7.16005 7.19967
7.23925 7.27879 7.31829 7.35776 7.3972 7.43661 7.47599 7.51534 7.55466 7.59397
7.63325 7.67252 7.71177 7.751 7.79022 7.82943 7.86863 7.90783 7.94702 7.98622
8.02541 8.0646 8.1038 8.14301 8.18223 8.22147 8.26071 8.29998 8.33927 8.37858
8.41792 8.45728 8.49668 8.53611 8.57558 8.6151 8.65465 8.69426 8.73391 8.77362
8.81339 8.85322 8.89311 8.93308 8.97311 9.01322 9.05342 9.0937 9.13407 9.17453
9.21509 9.25575 9.29652 9.33741 9.37841 9.41953 9.46078 9.50216 9.54368 9.58535
9.62716 9.66913 9.71126 9.75356 9.79603 9.83869 9.88153 9.92456 9.9678 10.0113
10.0549 10.0988 10.143 10.1873 10.232 10.2769 10.322 10.3675 10.4133 10.4593
10.5057 10.5525 10.5996 10.647 10.6949 10.7431 10.7918 10.8409 10.8905 10.9406
10.9912 11.0423 11.094 11.1463 11.1993 11.2529 11.3073 11.3624 11.4184 11.4752
11.533 11.5919 11.6519 11.7131 11.7757 11.8397 11.9054 11.973 12.0425 12.1145
12.189 12.2667 12.348 12.4335 12.524 12.6206 12.7213 12.7716 12.7821 12.7689
12.7703 -4.78538 -5.44174 -5.85725 -6.0255 -6.1263 -6.22516 -6.3189 -6.39914 -6.46774
-6.52881 -6.58489 -6.63723 -6.68638 -6.7327 -6.77655 -6.8184 -6.85858 -6.89733 -6.93485
-6.97131 -7.00685 -7.04166 -7.07589 -7.10969 -7.14317 -7.17636 -7.20936 -7.24222 -7.27499
-7.30774 -7.34052 -7.37339 -7.40639 -7.43957 -7.47299 -7.50673 -7.54085 -7.5754 -7.61043
-7.64599 -7.68212 -7.71887 -7.7563 -7.79448 -7.83349 -7.87342 -7.91435 -7.95641 -7.9997
-8.04437 -8.09059 -8.13859 -8.18861 -8.24097 -8.29611 -8.35459 -8.4172 -8.48553 -8.55994
-8.65117 -8.75005 -8.87539
