/*--------------------------------*- C++ -*----------------------------------*\
| =========                 |                                                 |
| \\      /  F ield         | OpenFOAM: The Open Source CFD Toolbox           |
|  \\    /   O peration     | Version:  2206                                  |
|   \\  /    A nd           | Website:  www.openfoam.com                      |
|    \\/     M anipulation  |                                                 |
\*---------------------------------------------------------------------------*/
FoamFile
{
    version     2.0;
    format      ascii;
    arch        "LSB;label=32;scalar=64";
    class       volScalarField;
    location    "1";
    object      k;
}
// * * * * * * * * * * * * * * * * * * * * * * * * * * * * * * * * * * * * * //

dimensions      [0 2 -2 0 0 0 0];

internalField   nonuniform List<scalar> 
1875
(
8.55201e-05
5.3168e-05
3.76552e-05
2.91386e-05
2.39618e-05
2.07151e-05
1.86612e-05
1.74021e-05
1.67229e-05
1.64979e-05
1.66439e-05
1.70961e-05
1.78038e-05
1.87234e-05
1.98436e-05
2.11804e-05
2.27885e-05
2.47749e-05
2.73185e-05
3.07013e-05
3.53615e-05
4.19813e-05
5.16315e-05
6.59955e-05
8.76708e-05
0.000120367
0.000165484
0.00022866
0.000318405
0.000448199
0.000639585
0.000920729
0.00127329
0.00161712
0.00192436
0.00214655
0.00225208
0.00222461
0.00206854
0.00180559
0.00144085
0.00106847
0.000750427
0.000508831
0.000339052
0.000225024
0.000149943
0.000100801
6.87777e-05
4.81214e-05
3.50072e-05
2.68424e-05
2.18659e-05
1.88851e-05
1.71781e-05
1.62918e-05
1.59412e-05
1.59534e-05
1.62101e-05
1.66241e-05
1.71272e-05
1.76651e-05
1.8194e-05
1.86787e-05
1.9091e-05
1.942e-05
1.96968e-05
1.99263e-05
2.01197e-05
2.02771e-05
2.04039e-05
2.05045e-05
2.05836e-05
2.06441e-05
2.06868e-05
8.51357e-05
5.37163e-05
3.78224e-05
2.87469e-05
2.32059e-05
1.95895e-05
1.71827e-05
1.55839e-05
1.45552e-05
1.39526e-05
1.3683e-05
1.36793e-05
1.38903e-05
1.4255e-05
1.47295e-05
1.52878e-05
1.59174e-05
1.6624e-05
1.74344e-05
1.84018e-05
1.96116e-05
2.11933e-05
2.33366e-05
2.63168e-05
3.05261e-05
3.64865e-05
4.46545e-05
5.56367e-05
7.03517e-05
9.0313e-05
0.000118387
0.000159519
0.00022257
0.000316317
0.00043417
0.000565937
0.000695493
0.000805803
0.000882293
0.000914528
0.00089546
0.000829809
0.000729664
0.000609655
0.000484407
0.00036676
0.000265889
0.000186119
0.000127371
8.66407e-05
5.97258e-05
4.25008e-05
3.16636e-05
2.50103e-05
2.09889e-05
1.85859e-05
1.71758e-05
1.64039e-05
1.60415e-05
1.59398e-05
1.59973e-05
1.61465e-05
1.63409e-05
1.65476e-05
1.67459e-05
1.69261e-05
1.70866e-05
1.72284e-05
1.73486e-05
1.74496e-05
1.75329e-05
1.76005e-05
1.76546e-05
1.76968e-05
1.77279e-05
8.5029e-05
5.35927e-05
3.7846e-05
2.87199e-05
2.29308e-05
1.90403e-05
1.63394e-05
1.44182e-05
1.3041e-05
1.20645e-05
1.13931e-05
1.09591e-05
1.0711e-05
1.06114e-05
1.06125e-05
1.06807e-05
1.07882e-05
1.09157e-05
1.10539e-05
1.12064e-05
1.13909e-05
1.16411e-05
1.20091e-05
1.25655e-05
1.33945e-05
1.45653e-05
1.60566e-05
1.77159e-05
1.93864e-05
2.11676e-05
2.35395e-05
2.73153e-05
3.38132e-05
4.78207e-05
7.35566e-05
0.000111967
0.000161174
0.000216655
0.000272555
0.000322917
0.000362006
0.000384432
0.000388292
0.000373815
0.000343334
0.000300983
0.000251974
0.000201725
0.000154995
0.000115119
8.35746e-05
6.01631e-05
4.36547e-05
3.24644e-05
2.50795e-05
2.03409e-05
1.73383e-05
1.54691e-05
1.43257e-05
1.36635e-05
1.33098e-05
1.31518e-05
1.31145e-05
1.31472e-05
1.32174e-05
1.33041e-05
1.33945e-05
1.34817e-05
1.35605e-05
1.36294e-05
1.3688e-05
1.37367e-05
1.37765e-05
1.38082e-05
1.38313e-05
8.49809e-05
5.33336e-05
3.75774e-05
2.85096e-05
2.27403e-05
1.88081e-05
1.59982e-05
1.39222e-05
1.23589e-05
1.1172e-05
1.02652e-05
9.57182e-06
9.04521e-06
8.65185e-06
8.36352e-06
8.15281e-06
7.99649e-06
7.87606e-06
7.77972e-06
7.70384e-06
7.65536e-06
7.65387e-06
7.73357e-06
7.94263e-06
8.32561e-06
8.85026e-06
9.29269e-06
9.3106e-06
8.80267e-06
7.99695e-06
7.21169e-06
6.74868e-06
6.79477e-06
7.90384e-06
1.18738e-05
2.00922e-05
3.35472e-05
5.23101e-05
7.54883e-05
0.000101443
0.000127793
0.000151614
0.000170177
0.000181312
0.000183821
0.000177748
0.00016425
0.000145284
0.000123284
0.000100699
7.95705e-05
6.12656e-05
4.64069e-05
3.49908e-05
2.66068e-05
2.06766e-05
1.66206e-05
1.39115e-05
1.21523e-05
1.10534e-05
1.03893e-05
1.00228e-05
9.85219e-06
9.80126e-06
9.82138e-06
9.88052e-06
9.95767e-06
1.00396e-05
1.01182e-05
1.01893e-05
1.02509e-05
1.03027e-05
1.03451e-05
1.03789e-05
1.04027e-05
8.49609e-05
5.31744e-05
3.7311e-05
2.82243e-05
2.24771e-05
1.8568e-05
1.5762e-05
1.36666e-05
1.20566e-05
1.07946e-05
9.79022e-06
8.98163e-06
8.32641e-06
7.79386e-06
7.36323e-06
7.01456e-06
6.73159e-06
6.50182e-06
6.31732e-06
6.17664e-06
6.08736e-06
6.06963e-06
6.16056e-06
6.4127e-06
6.84544e-06
7.27588e-06
7.22723e-06
6.40257e-06
5.09993e-06
3.79251e-06
2.68986e-06
1.9612e-06
1.56946e-06
1.45974e-06
1.96673e-06
3.51283e-06
6.69749e-06
1.20672e-05
1.99441e-05
3.03168e-05
4.27432e-05
5.63355e-05
6.97579e-05
8.14056e-05
8.98301e-05
9.40285e-05
9.36435e-05
8.89674e-05
8.08916e-05
7.06662e-05
5.95743e-05
4.87078e-05
3.88588e-05
3.04773e-05
2.37087e-05
1.84827e-05
1.46092e-05
1.1858e-05
9.96543e-06
8.71166e-06
7.92662e-06
7.47087e-06
7.24405e-06
7.16809e-06
7.18638e-06
7.25908e-06
7.359e-06
7.46807e-06
7.57493e-06
7.67304e-06
7.75911e-06
7.83207e-06
7.89212e-06
7.94013e-06
7.97367e-06
8.49524e-05
5.3093e-05
3.7139e-05
2.79955e-05
2.22291e-05
1.83242e-05
1.55314e-05
1.34478e-05
1.18413e-05
1.05707e-05
9.54609e-06
8.70746e-06
8.01339e-06
7.4345e-06
6.95135e-06
6.54835e-06
6.2141e-06
5.94106e-06
5.72619e-06
5.57238e-06
5.49171e-06
5.51107e-06
5.67949e-06
6.05709e-06
6.5826e-06
6.75435e-06
5.92505e-06
4.27137e-06
2.62613e-06
1.44402e-06
6.61624e-07
2.73324e-07
1.31668e-07
1.0568e-07
2.13541e-07
5.53227e-07
1.35559e-06
2.89237e-06
5.49898e-06
9.40752e-06
1.46909e-05
2.12087e-05
2.85622e-05
3.61304e-05
4.28983e-05
4.80256e-05
5.10367e-05
5.14723e-05
4.94701e-05
4.55113e-05
4.02641e-05
3.44275e-05
2.8606e-05
2.32416e-05
1.85932e-05
1.47643e-05
1.17484e-05
9.47289e-06
7.83839e-06
6.7246e-06
6.00369e-06
5.57958e-06
5.37254e-06
5.31733e-06
5.36226e-06
5.46826e-06
5.60631e-06
5.75598e-06
5.90358e-06
6.04058e-06
6.16232e-06
6.26688e-06
6.35407e-06
6.42447e-06
6.47437e-06
8.49484e-05
5.30521e-05
3.70422e-05
2.78493e-05
2.20499e-05
1.81287e-05
1.53323e-05
1.32526e-05
1.16528e-05
1.03883e-05
9.36673e-06
8.52726e-06
7.82837e-06
7.24125e-06
6.74645e-06
6.33002e-06
5.9829e-06
5.70052e-06
5.48325e-06
5.33826e-06
5.28391e-06
5.35803e-06
5.62682e-06
6.14214e-06
6.62819e-06
6.12258e-06
4.33151e-06
2.2533e-06
8.7546e-07
2.5569e-07
4.24663e-08
6.08393e-09
2.01641e-09
2.91093e-09
1.23996e-08
1.07564e-07
5.36053e-07
8.43268e-07
1.70891e-06
3.22898e-06
5.52335e-06
8.63471e-06
1.24645e-05
1.68238e-05
2.12201e-05
2.5058e-05
2.7967e-05
2.95556e-05
2.96797e-05
2.84113e-05
2.61128e-05
2.31203e-05
1.98282e-05
1.65675e-05
1.35745e-05
1.0988e-05
8.86447e-06
7.2019e-06
5.96295e-06
5.09173e-06
4.53178e-06
4.21504e-06
4.07813e-06
4.07382e-06
4.16155e-06
4.30795e-06
4.48664e-06
4.67759e-06
4.86641e-06
5.04341e-06
5.20277e-06
5.34161e-06
5.45912e-06
5.5553e-06
5.6245e-06
8.49465e-05
5.30307e-05
3.69881e-05
2.77618e-05
2.19348e-05
1.79936e-05
1.5185e-05
1.30995e-05
1.14985e-05
1.02358e-05
9.21737e-06
8.38123e-06
7.68506e-06
7.10019e-06
6.60663e-06
6.19098e-06
5.84516e-06
5.56614e-06
5.35663e-06
5.22765e-06
5.20451e-06
5.3385e-06
5.71298e-06
6.32529e-06
6.47854e-06
4.93548e-06
2.53089e-06
7.34501e-07
9.93086e-08
6.71982e-09
0.00015
0.00015
0.00015
0.00015
0.00015
2.06956e-06
5.55967e-08
1.70306e-07
4.34329e-07
1.0526e-06
2.13186e-06
3.69877e-06
5.78531e-06
8.31602e-06
1.1044e-05
1.36457e-05
1.58269e-05
1.73117e-05
1.796e-05
1.772e-05
1.67266e-05
1.51829e-05
1.33244e-05
1.13675e-05
9.49146e-06
7.81591e-06
6.40283e-06
5.27454e-06
4.42342e-06
3.8241e-06
3.44295e-06
3.24294e-06
3.19043e-06
3.24773e-06
3.38202e-06
3.56758e-06
3.7824e-06
4.00864e-06
4.2325e-06
4.44403e-06
4.63666e-06
4.80673e-06
4.95271e-06
5.07382e-06
5.1625e-06
8.49454e-05
5.30187e-05
3.69564e-05
2.7709e-05
2.18628e-05
1.79059e-05
1.50852e-05
1.29911e-05
1.13849e-05
1.01193e-05
9.10007e-06
8.26438e-06
7.56956e-06
6.98655e-06
6.49517e-06
6.08211e-06
5.73971e-06
5.46578e-06
5.26468e-06
5.15082e-06
5.1567e-06
5.34765e-06
5.81567e-06
6.41824e-06
5.8592e-06
3.31426e-06
1.01305e-06
8.65857e-08
1.64442e-09
0.00015
0.00015
0.00015
0.00015
0.00015
0.00015
0.00015
3.44958e-07
3.63948e-08
1.55416e-07
3.14932e-07
7.06295e-07
1.42938e-06
2.65062e-06
4.23552e-06
5.98233e-06
7.72186e-06
9.25366e-06
1.03859e-05
1.10123e-05
1.10799e-05
1.06398e-05
9.81096e-06
8.73909e-06
7.56535e-06
6.40922e-06
5.35828e-06
4.46461e-06
3.75108e-06
3.21931e-06
2.85776e-06
2.64754e-06
2.56665e-06
2.59256e-06
2.70303e-06
2.87768e-06
3.0954e-06
3.3381e-06
3.59075e-06
3.84084e-06
4.07869e-06
4.29742e-06
4.49272e-06
4.66239e-06
4.80486e-06
4.91047e-06
8.49449e-05
5.30114e-05
3.69372e-05
2.76764e-05
2.18177e-05
1.78499e-05
1.50202e-05
1.2919e-05
1.13072e-05
1.00377e-05
9.01569e-06
8.17833e-06
7.48279e-06
6.89967e-06
6.40871e-06
5.99664e-06
5.65601e-06
5.38515e-06
5.18965e-06
5.08683e-06
5.11585e-06
5.354e-06
5.88247e-06
6.30499e-06
4.74071e-06
1.65644e-06
1.8338e-07
5.80837e-09
0.00015
0.00015
0.00015
0.00015
0.00015
0.00015
0.00015
0.00015
0.00015
2.07951e-06
1.29961e-07
1.93745e-07
3.03493e-07
6.14997e-07
1.21253e-06
2.08037e-06
3.14574e-06
4.33486e-06
5.4325e-06
6.22235e-06
6.68855e-06
6.80063e-06
6.58922e-06
6.12801e-06
5.50885e-06
4.82165e-06
4.14213e-06
3.52634e-06
3.00909e-06
2.60667e-06
2.32185e-06
2.14916e-06
2.0784e-06
2.09711e-06
2.19189e-06
2.34894e-06
2.5545e-06
2.7949e-06
3.05671e-06
3.32696e-06
3.59466e-06
3.85065e-06
4.08795e-06
4.30182e-06
4.48948e-06
4.64861e-06
4.7677e-06
8.49445e-05
5.3007e-05
3.69255e-05
2.76566e-05
2.17901e-05
1.78154e-05
1.49798e-05
1.28736e-05
1.12577e-05
9.98487e-06
8.96028e-06
8.12091e-06
7.4239e-06
6.83969e-06
6.348e-06
5.93559e-06
5.59512e-06
5.32524e-06
5.13244e-06
5.03625e-06
5.08102e-06
5.35094e-06
5.88803e-06
5.94687e-06
3.22976e-06
5.00909e-07
3.04251e-08
0.00015
0.00015
0.00015
0.00015
0.00015
0.00015
0.00015
0.00015
0.00015
0.00015
0.00015
3.73951e-07
3.15377e-07
2.13317e-07
3.18706e-07
6.06596e-07
1.0523e-06
1.63273e-06
2.29467e-06
2.93577e-06
3.45122e-06
3.80222e-06
3.9041e-06
3.80495e-06
3.56394e-06
3.23765e-06
2.87929e-06
2.53109e-06
2.224e-06
1.97727e-06
1.80029e-06
1.6955e-06
1.6611e-06
1.69284e-06
1.78499e-06
1.93079e-06
2.12245e-06
2.35126e-06
2.60761e-06
2.88139e-06
3.16246e-06
3.44094e-06
3.70831e-06
3.95764e-06
4.18395e-06
4.38403e-06
4.55496e-06
4.68376e-06
8.49443e-05
5.30046e-05
3.69192e-05
2.76458e-05
2.1775e-05
1.77965e-05
1.49576e-05
1.28486e-05
1.12303e-05
9.95543e-06
8.92913e-06
8.08834e-06
7.39013e-06
6.80488e-06
6.31232e-06
5.8992e-06
5.55822e-06
5.2882e-06
5.09615e-06
5.003e-06
5.05617e-06
5.34033e-06
5.83493e-06
5.40807e-06
1.79061e-06
1.29283e-07
4.06335e-09
0.00015
0.00015
0.00015
0.00015
0.00015
0.00015
0.00015
0.00015
0.00015
0.00015
0.00015
5.46849e-06
6.45231e-07
1.9833e-07
1.84849e-07
3.15592e-07
5.25397e-07
7.98027e-07
1.11255e-06
1.43124e-06
1.70942e-06
1.91098e-06
2.00654e-06
1.99821e-06
1.90677e-06
1.77647e-06
1.63704e-06
1.50773e-06
1.40275e-06
1.33162e-06
1.29989e-06
1.31041e-06
1.36425e-06
1.46128e-06
1.60018e-06
1.77842e-06
1.99202e-06
2.23546e-06
2.50172e-06
2.78269e-06
3.06962e-06
3.35382e-06
3.62725e-06
3.88316e-06
4.11649e-06
4.3238e-06
4.50179e-06
4.6365e-06
8.49443e-05
5.30039e-05
3.69171e-05
2.76422e-05
2.17701e-05
1.77904e-05
1.49505e-05
1.28405e-05
1.12215e-05
9.94595e-06
8.9191e-06
8.07782e-06
7.37915e-06
6.79348e-06
6.30053e-06
5.88704e-06
5.54573e-06
5.27546e-06
5.08337e-06
4.99088e-06
5.04641e-06
5.33252e-06
5.77853e-06
4.93989e-06
1.22551e-06
5.50782e-08
1.26071e-09
0.00015
0.00015
0.00015
0.00015
0.00015
0.00015
0.00015
0.00015
0.00015
0.00015
0.00015
3.53751e-06
4.07054e-07
1.40628e-07
1.25697e-07
2.02865e-07
3.19935e-07
4.63762e-07
6.24312e-07
7.87914e-07
9.37426e-07
1.0577e-06
1.136e-06
1.16733e-06
1.15301e-06
1.11671e-06
1.07946e-06
1.05286e-06
1.04154e-06
1.05105e-06
1.08569e-06
1.14876e-06
1.24279e-06
1.36954e-06
1.5297e-06
1.7226e-06
1.94592e-06
2.19554e-06
2.46563e-06
2.74896e-06
3.03751e-06
3.32307e-06
3.59795e-06
3.85559e-06
4.09096e-06
4.30055e-06
4.48093e-06
4.61773e-06
8.49443e-05
5.30047e-05
3.69192e-05
2.76458e-05
2.1775e-05
1.77965e-05
1.49576e-05
1.28486e-05
1.12303e-05
9.95541e-06
8.92911e-06
8.08833e-06
7.39014e-06
6.80492e-06
6.31239e-06
5.89931e-06
5.55836e-06
5.28835e-06
5.09624e-06
5.00299e-06
5.05672e-06
5.3486e-06
5.89837e-06
5.66348e-06
1.99567e-06
1.41039e-07
4.67914e-09
0.00015
0.00015
0.00015
0.00015
0.00015
0.00015
0.00015
0.00015
0.00015
0.00015
0.00015
5.45919e-06
6.0632e-07
1.7733e-07
1.58926e-07
2.64079e-07
4.28521e-07
6.3352e-07
8.61324e-07
1.08489e-06
1.27483e-06
1.41298e-06
1.47883e-06
1.4751e-06
1.41453e-06
1.33568e-06
1.25878e-06
1.19544e-06
1.15395e-06
1.13997e-06
1.15709e-06
1.20755e-06
1.29279e-06
1.41351e-06
1.56951e-06
1.7594e-06
1.98031e-06
2.22773e-06
2.49558e-06
2.77652e-06
3.06248e-06
3.34533e-06
3.61744e-06
3.87231e-06
4.10502e-06
4.31214e-06
4.49034e-06
4.62544e-06
8.49445e-05
5.30071e-05
3.69255e-05
2.76566e-05
2.17901e-05
1.78154e-05
1.49798e-05
1.28736e-05
1.12577e-05
9.98482e-06
8.96024e-06
8.12088e-06
7.42391e-06
6.83975e-06
6.34814e-06
5.93582e-06
5.59541e-06
5.32554e-06
5.1326e-06
5.0361e-06
5.08106e-06
5.35996e-06
5.97305e-06
6.36526e-06
3.89393e-06
5.7915e-07
3.44756e-08
0.00015
0.00015
0.00015
0.00015
0.00015
0.00015
0.00015
0.00015
0.00015
0.00015
0.00015
3.63173e-07
2.21385e-07
1.58065e-07
2.47969e-07
4.65101e-07
7.86023e-07
1.18748e-06
1.632e-06
2.05121e-06
2.37426e-06
2.58375e-06
2.62422e-06
2.54021e-06
2.37883e-06
2.17771e-06
1.96975e-06
1.77941e-06
1.62382e-06
1.51318e-06
1.45223e-06
1.44215e-06
1.4821e-06
1.57e-06
1.70288e-06
1.87678e-06
2.08662e-06
2.32605e-06
2.5876e-06
2.86292e-06
3.14336e-06
3.42029e-06
3.68593e-06
3.9339e-06
4.15953e-06
4.35969e-06
4.53137e-06
4.66116e-06
8.49449e-05
5.30114e-05
3.69372e-05
2.76764e-05
2.18177e-05
1.78499e-05
1.50202e-05
1.29189e-05
1.13071e-05
1.00376e-05
9.01562e-06
8.1783e-06
7.48281e-06
6.89978e-06
6.40894e-06
5.99701e-06
5.6565e-06
5.38567e-06
5.19e-06
5.08667e-06
5.11524e-06
5.35958e-06
5.952e-06
6.70399e-06
5.62198e-06
1.91217e-06
1.99048e-07
6.40215e-09
0.00015
0.00015
0.00015
0.00015
0.00015
0.00015
0.00015
0.00015
0.00015
2.06951e-06
1.19519e-07
1.34625e-07
2.24041e-07
4.59152e-07
8.90847e-07
1.49533e-06
2.21192e-06
2.98637e-06
3.67048e-06
4.13019e-06
4.37725e-06
4.4046e-06
4.24152e-06
3.93953e-06
3.5574e-06
3.14974e-06
2.76088e-06
2.42248e-06
2.15341e-06
1.96187e-06
1.84868e-06
1.81039e-06
1.84109e-06
1.93355e-06
2.0797e-06
2.2707e-06
2.49714e-06
2.74908e-06
3.01624e-06
3.28823e-06
3.55576e-06
3.81099e-06
4.04777e-06
4.26187e-06
4.45063e-06
4.61162e-06
4.73264e-06
8.49454e-05
5.30187e-05
3.69564e-05
2.7709e-05
2.18628e-05
1.79058e-05
1.50851e-05
1.29911e-05
1.13848e-05
1.01192e-05
9.09999e-06
8.26435e-06
7.56962e-06
6.98676e-06
6.49559e-06
6.08275e-06
5.74057e-06
5.46674e-06
5.2655e-06
5.15106e-06
5.15602e-06
5.34981e-06
5.85957e-06
6.70878e-06
6.68101e-06
3.78819e-06
1.07045e-06
8.69203e-08
1.65119e-09
0.00015
0.00015
0.00015
0.00015
0.00015
0.00015
0.00015
3.41212e-07
2.87913e-08
7.36903e-08
2.21562e-07
5.21142e-07
1.05061e-06
1.9075e-06
2.97564e-06
4.10843e-06
5.20012e-06
6.13145e-06
6.79175e-06
7.12856e-06
7.12048e-06
6.81054e-06
6.27803e-06
5.61455e-06
4.90593e-06
4.22321e-06
3.61721e-06
3.11717e-06
2.73515e-06
2.47117e-06
2.31803e-06
2.2644e-06
2.29707e-06
2.40226e-06
2.56569e-06
2.77382e-06
3.01165e-06
3.26559e-06
3.52398e-06
3.77688e-06
4.01639e-06
4.23676e-06
4.43428e-06
4.60694e-06
4.75299e-06
4.86183e-06
8.49465e-05
5.30307e-05
3.69881e-05
2.77618e-05
2.19348e-05
1.79936e-05
1.5185e-05
1.30994e-05
1.14984e-05
1.02357e-05
9.21731e-06
8.38128e-06
7.68528e-06
7.10068e-06
6.60748e-06
6.19222e-06
5.84678e-06
5.56802e-06
5.35848e-06
5.22897e-06
5.20472e-06
5.33916e-06
5.73609e-06
6.50099e-06
7.10024e-06
5.56132e-06
2.68299e-06
7.21291e-07
9.42694e-08
6.31803e-09
0.00015
0.00015
0.00015
0.00015
0.00015
1.99297e-06
3.8889e-08
9.95022e-08
3.16043e-07
7.8219e-07
1.56549e-06
2.65839e-06
4.07347e-06
5.75391e-06
7.52551e-06
9.17915e-06
1.05356e-05
1.14259e-05
1.17771e-05
1.15692e-05
1.09015e-05
9.90693e-06
8.73466e-06
7.5187e-06
6.36841e-06
5.35533e-06
4.5152e-06
3.86028e-06
3.38522e-06
3.0743e-06
2.90711e-06
2.86069e-06
2.91453e-06
3.04319e-06
3.22393e-06
3.43851e-06
3.67093e-06
3.90782e-06
4.13857e-06
4.35533e-06
4.5528e-06
4.72796e-06
4.87944e-06
5.00628e-06
5.09965e-06
8.49484e-05
5.30521e-05
3.70422e-05
2.78493e-05
2.20499e-05
1.81286e-05
1.53322e-05
1.32524e-05
1.16527e-05
1.03882e-05
9.36679e-06
8.52755e-06
7.82902e-06
7.2424e-06
6.74823e-06
6.33248e-06
5.98602e-06
5.70414e-06
5.48703e-06
5.34164e-06
5.28613e-06
5.35933e-06
5.63782e-06
6.23286e-06
7.00986e-06
6.72698e-06
4.62715e-06
2.2473e-06
8.07345e-07
2.32822e-07
3.90127e-08
5.53974e-09
1.81266e-09
2.63178e-09
1.10462e-08
9.10632e-08
2.11616e-07
5.7671e-07
1.26061e-06
2.37129e-06
3.99568e-06
6.15913e-06
8.78737e-06
1.17507e-05
1.46993e-05
1.72336e-05
1.91202e-05
2.01076e-05
2.01201e-05
1.92239e-05
1.76719e-05
1.56879e-05
1.35305e-05
1.14126e-05
9.48307e-06
7.82819e-06
6.4821e-06
5.44218e-06
4.68441e-06
4.17305e-06
3.87411e-06
3.74097e-06
3.73031e-06
3.81049e-06
3.95333e-06
4.1351e-06
4.33657e-06
4.54281e-06
4.74281e-06
4.92905e-06
5.09687e-06
5.24397e-06
5.36966e-06
5.47365e-06
5.54881e-06
8.49524e-05
5.3093e-05
3.7139e-05
2.79955e-05
2.2229e-05
1.83241e-05
1.55313e-05
1.34476e-05
1.18412e-05
1.05708e-05
9.54649e-06
8.70836e-06
8.01498e-06
7.43699e-06
6.95486e-06
6.55291e-06
6.21962e-06
5.94729e-06
5.73264e-06
5.57837e-06
5.49637e-06
5.51389e-06
5.6847e-06
6.09722e-06
6.7759e-06
7.1835e-06
6.28129e-06
4.33518e-06
2.49167e-06
1.29992e-06
5.90244e-07
2.43999e-07
1.17874e-07
9.387e-08
1.85964e-07
4.61879e-07
1.07387e-06
2.23039e-06
4.14641e-06
6.98352e-06
1.07875e-05
1.54561e-05
2.07016e-05
2.60798e-05
3.08488e-05
3.44223e-05
3.64781e-05
3.6707e-05
3.52346e-05
3.24189e-05
2.87349e-05
2.46701e-05
2.06403e-05
1.69447e-05
1.37551e-05
1.11378e-05
9.08593e-06
7.54982e-06
6.46513e-06
5.74735e-06
5.30415e-06
5.07103e-06
4.9924e-06
5.02201e-06
5.12254e-06
5.26533e-06
5.42861e-06
5.59676e-06
5.75908e-06
5.90882e-06
6.0422e-06
6.15767e-06
6.25508e-06
6.3347e-06
6.39115e-06
8.49609e-05
5.31745e-05
3.7311e-05
2.82242e-05
2.2477e-05
1.85679e-05
1.57619e-05
1.36665e-05
1.20567e-05
1.07951e-05
9.79136e-06
8.98369e-06
8.32967e-06
7.79847e-06
7.36917e-06
7.02172e-06
6.73967e-06
6.51032e-06
6.32552e-06
6.18361e-06
6.09201e-06
6.07097e-06
6.15964e-06
6.42261e-06
6.92114e-06
7.50155e-06
7.51438e-06
6.52154e-06
4.9738e-06
3.53919e-06
2.4485e-06
1.73866e-06
1.36524e-06
1.26047e-06
1.68493e-06
2.92311e-06
5.39377e-06
9.48413e-06
1.54351e-05
2.32538e-05
3.26192e-05
4.28722e-05
5.29977e-05
6.17732e-05
6.80983e-05
7.12198e-05
7.08819e-05
6.73263e-05
6.12471e-05
5.35988e-05
4.53423e-05
3.72825e-05
2.99957e-05
2.38049e-05
1.8811e-05
1.49599e-05
1.21137e-05
1.01085e-05
8.73773e-06
7.84268e-06
7.3001e-06
7.00587e-06
6.88561e-06
6.88006e-06
6.94576e-06
7.05166e-06
7.17627e-06
7.30502e-06
7.42857e-06
7.54145e-06
7.64087e-06
7.72594e-06
7.79684e-06
7.85416e-06
7.89377e-06
8.49809e-05
5.33336e-05
3.75774e-05
2.85096e-05
2.27402e-05
1.8808e-05
1.59981e-05
1.39223e-05
1.23594e-05
1.11732e-05
1.02674e-05
9.5754e-06
9.05037e-06
8.65847e-06
8.37118e-06
8.16097e-06
8.00432e-06
7.88251e-06
7.78352e-06
7.7036e-06
7.6495e-06
7.64079e-06
7.71234e-06
7.91681e-06
8.31604e-06
8.90365e-06
9.41163e-06
9.36791e-06
8.65612e-06
7.63387e-06
6.70394e-06
6.11326e-06
6.02599e-06
6.89647e-06
1.02016e-05
1.69012e-05
2.77142e-05
4.26891e-05
6.11735e-05
8.19266e-05
0.00010306
0.000122245
0.000137271
0.000146343
0.000148461
0.000143647
0.000132845
0.000117649
0.00010003
8.19611e-05
6.50719e-05
5.04472e-05
3.85784e-05
2.94604e-05
2.27666e-05
1.80433e-05
1.48185e-05
1.2665e-05
1.12771e-05
1.04235e-05
9.92119e-06
9.6614e-06
9.56211e-06
9.5603e-06
9.61589e-06
9.70216e-06
9.80134e-06
9.90198e-06
9.99695e-06
1.00825e-05
1.01569e-05
1.02198e-05
1.02718e-05
1.03135e-05
1.03419e-05
8.5029e-05
5.35927e-05
3.7846e-05
2.87199e-05
2.29308e-05
1.90403e-05
1.63395e-05
1.44185e-05
1.30419e-05
1.20664e-05
1.13963e-05
1.09639e-05
1.0717e-05
1.06176e-05
1.0618e-05
1.06838e-05
1.07871e-05
1.09083e-05
1.1038e-05
1.11794e-05
1.13497e-05
1.1582e-05
1.19272e-05
1.24554e-05
1.32541e-05
1.44002e-05
1.58625e-05
1.74214e-05
1.8829e-05
2.01764e-05
2.19785e-05
2.50052e-05
3.04187e-05
4.255e-05
6.48737e-05
9.78463e-05
0.000139875
0.000187223
0.00023505
0.000278304
0.000312025
0.000331719
0.000335545
0.000323507
0.000297517
0.00026113
0.000218876
0.000175473
0.000135072
0.000100593
7.33354e-05
5.31294e-05
3.8906e-05
2.92874e-05
2.29595e-05
1.89043e-05
1.63466e-05
1.47682e-05
1.38161e-05
1.32807e-05
1.30124e-05
1.29134e-05
1.29183e-05
1.29828e-05
1.30781e-05
1.31856e-05
1.32938e-05
1.33965e-05
1.34888e-05
1.35694e-05
1.3638e-05
1.36951e-05
1.37419e-05
1.3779e-05
1.38047e-05
8.51357e-05
5.37163e-05
3.78225e-05
2.8747e-05
2.32059e-05
1.95896e-05
1.71829e-05
1.55847e-05
1.45569e-05
1.39557e-05
1.36873e-05
1.36843e-05
1.38946e-05
1.42568e-05
1.47266e-05
1.52775e-05
1.58971e-05
1.65908e-05
1.7385e-05
1.83314e-05
1.95137e-05
2.10574e-05
2.31465e-05
2.60469e-05
3.01352e-05
3.5902e-05
4.37744e-05
5.43397e-05
6.83485e-05
8.70408e-05
0.000112939
0.000150489
0.000208015
0.000294327
0.000402554
0.000523486
0.000642586
0.000744435
0.000815622
0.000846088
0.00082904
0.000769403
0.000677366
0.000566284
0.000449867
0.000340288
0.000246305
0.000172079
0.000117574
7.99484e-05
5.52212e-05
3.94936e-05
2.96612e-05
2.36615e-05
2.00586e-05
1.79289e-05
1.67005e-05
1.60511e-05
1.57729e-05
1.57308e-05
1.58321e-05
1.60147e-05
1.62355e-05
1.64637e-05
1.66797e-05
1.68749e-05
1.70486e-05
1.72019e-05
1.73318e-05
1.74408e-05
1.75308e-05
1.76039e-05
1.76626e-05
1.77084e-05
1.77414e-05
8.55201e-05
5.3168e-05
3.76552e-05
2.91387e-05
2.3962e-05
2.07157e-05
1.86626e-05
1.74048e-05
1.67271e-05
1.65034e-05
1.66495e-05
1.70998e-05
1.78031e-05
1.87157e-05
1.98262e-05
2.11507e-05
2.2744e-05
2.4713e-05
2.72357e-05
3.05925e-05
3.5219e-05
4.17935e-05
5.13815e-05
6.56607e-05
8.72243e-05
0.000119789
0.000164798
0.000227896
0.000317467
0.000446555
0.000635917
0.000912898
0.00125935
0.00159647
0.00189764
0.00211559
0.00221934
0.00219253
0.00203889
0.00177923
0.00141841
0.00104953
0.000734365
0.000495268
0.000327833
0.000216036
0.000142998
9.56203e-05
6.50328e-05
4.54818e-05
3.31786e-05
2.5585e-05
2.09953e-05
1.82743e-05
1.67399e-05
1.59694e-05
1.56979e-05
1.57655e-05
1.60623e-05
1.65068e-05
1.70343e-05
1.75926e-05
1.81392e-05
1.86395e-05
1.90657e-05
1.9407e-05
1.96945e-05
1.9933e-05
2.01338e-05
2.02974e-05
2.04291e-05
2.05339e-05
2.06168e-05
2.06814e-05
2.07294e-05
)
;

boundaryField
{
    ibCylinder
    {
        type            immersedBoundaryKqRWallFunction;
        patchType       immersedBoundary;
        setDeadValue    true;
        deadValue       0.00015;
        value           nonuniform List<scalar> 0();
    }
    in
    {
        type            fixedValue;
        value           uniform 0.00015;
    }
    out
    {
        type            inletOutlet;
        inletValue      uniform 0.00015;
        value           nonuniform List<scalar> 
25
(
2.06868e-05
1.77279e-05
1.38313e-05
1.04027e-05
7.97367e-06
6.47437e-06
5.6245e-06
5.1625e-06
4.91047e-06
4.7677e-06
4.68376e-06
4.6365e-06
4.61773e-06
4.62544e-06
4.66116e-06
4.73264e-06
4.86183e-06
5.09965e-06
5.54881e-06
6.39115e-06
7.89377e-06
1.03419e-05
1.38047e-05
1.77414e-05
2.07294e-05
)
;
    }
    top
    {
        type            zeroGradient;
    }
    bottom
    {
        type            zeroGradient;
    }
    frontAndBack
    {
        type            empty;
    }
}


// ************************************************************************* //
