/*--------------------------------*- C++ -*----------------------------------*\
| =========                 |                                                 |
| \\      /  F ield         | OpenFOAM: The Open Source CFD Toolbox           |
|  \\    /   O peration     | Version:  2206                                  |
|   \\  /    A nd           | Website:  www.openfoam.com                      |
|    \\/     M anipulation  |                                                 |
\*---------------------------------------------------------------------------*/
FoamFile
{
    version     2.0;
    format      ascii;
    arch        "LSB;label=32;scalar=64";
    class       volScalarField;
    location    "1";
    object      nut;
}
// * * * * * * * * * * * * * * * * * * * * * * * * * * * * * * * * * * * * * //

dimensions      [0 2 -1 0 0 0 0];

internalField   nonuniform List<scalar> 
1875
(
2.91405e-07
2.8803e-07
2.93976e-07
3.06402e-07
3.2273e-07
3.427e-07
3.66335e-07
3.94176e-07
4.27211e-07
4.66479e-07
5.12666e-07
5.65814e-07
6.25254e-07
6.89817e-07
7.58608e-07
8.31203e-07
9.08144e-07
9.91382e-07
1.08467e-06
1.194e-06
1.3282e-06
1.49978e-06
1.72609e-06
2.03066e-06
2.44396e-06
3.00016e-06
3.69403e-06
4.56122e-06
5.64559e-06
7.012e-06
8.75722e-06
1.09812e-05
1.34868e-05
1.58185e-05
1.79043e-05
1.95542e-05
2.06232e-05
2.09805e-05
2.05396e-05
1.92746e-05
1.70647e-05
1.43232e-05
1.14995e-05
8.93684e-06
6.81176e-06
5.14907e-06
3.88757e-06
2.9446e-06
2.24912e-06
1.74727e-06
1.39673e-06
1.16205e-06
1.01265e-06
9.22816e-07
8.73988e-07
8.52844e-07
8.50063e-07
8.59425e-07
8.76449e-07
8.97794e-07
9.20923e-07
9.43933e-07
9.65428e-07
9.84416e-07
1.00022e-06
1.01272e-06
1.02302e-06
1.03139e-06
1.03828e-06
1.04379e-06
1.04817e-06
1.05161e-06
1.0543e-06
1.05638e-06
1.05788e-06
2.90327e-07
2.83168e-07
2.79835e-07
2.80663e-07
2.85908e-07
2.94761e-07
3.07364e-07
3.23891e-07
3.44645e-07
3.70069e-07
4.00563e-07
4.36291e-07
4.77127e-07
5.21839e-07
5.6918e-07
6.1808e-07
6.67716e-07
7.17818e-07
7.68917e-07
8.22548e-07
8.81461e-07
9.49862e-07
1.03373e-06
1.14115e-06
1.28216e-06
1.46628e-06
1.69077e-06
1.94191e-06
2.20825e-06
2.50386e-06
2.89012e-06
3.48331e-06
4.40593e-06
5.70402e-06
7.17678e-06
8.67362e-06
1.00311e-05
1.11184e-05
1.18432e-05
1.21442e-05
1.19754e-05
1.1376e-05
1.04301e-05
9.23795e-06
7.90597e-06
6.54321e-06
5.25115e-06
4.10832e-06
3.16036e-06
2.41867e-06
1.86789e-06
1.47676e-06
1.20946e-06
1.03562e-06
9.28121e-07
8.66063e-07
8.34236e-07
8.22642e-07
8.24104e-07
8.33502e-07
8.47162e-07
8.62552e-07
8.77968e-07
8.92304e-07
9.0496e-07
9.15768e-07
9.24859e-07
9.32441e-07
9.38601e-07
9.43565e-07
9.47518e-07
9.50631e-07
9.53073e-07
9.54992e-07
9.56588e-07
2.90039e-07
2.82057e-07
2.76477e-07
2.73045e-07
2.71798e-07
2.72788e-07
2.76203e-07
2.82073e-07
2.90563e-07
3.01922e-07
3.16358e-07
3.34002e-07
3.54839e-07
3.78806e-07
4.0496e-07
4.32449e-07
4.60327e-07
4.87741e-07
5.14114e-07
5.39314e-07
5.63784e-07
5.88632e-07
6.15632e-07
6.46884e-07
6.82998e-07
7.16674e-07
7.21934e-07
6.66035e-07
5.67273e-07
4.75459e-07
4.1887e-07
4.25889e-07
4.96036e-07
6.9483e-07
1.06732e-06
1.62931e-06
2.35494e-06
3.17836e-06
4.01394e-06
4.77528e-06
5.38263e-06
5.77413e-06
5.92795e-06
5.84647e-06
5.55392e-06
5.0923e-06
4.51449e-06
3.87748e-06
3.2365e-06
2.63896e-06
2.11831e-06
1.69123e-06
1.35952e-06
1.1147e-06
9.4271e-07
8.27954e-07
7.55904e-07
7.14964e-07
6.95671e-07
6.91338e-07
6.96569e-07
7.07361e-07
7.20848e-07
7.35052e-07
7.48711e-07
7.61106e-07
7.71908e-07
7.81058e-07
7.88596e-07
7.94693e-07
7.99545e-07
8.03352e-07
8.06311e-07
8.08601e-07
8.10362e-07
2.8995e-07
2.81692e-07
2.755e-07
2.70868e-07
2.67574e-07
2.65529e-07
2.64737e-07
2.65234e-07
2.67147e-07
2.7063e-07
2.75739e-07
2.82512e-07
2.90967e-07
3.0114e-07
3.12901e-07
3.25854e-07
3.39489e-07
3.53255e-07
3.66677e-07
3.79478e-07
3.91726e-07
4.03956e-07
4.1714e-07
4.31843e-07
4.43437e-07
4.28372e-07
3.48195e-07
2.23632e-07
1.31483e-07
8.11977e-08
5.28144e-08
4.31494e-08
4.26314e-08
5.23943e-08
8.51765e-08
1.57698e-07
2.89325e-07
4.95416e-07
7.81984e-07
1.14261e-06
1.5539e-06
1.97557e-06
2.36022e-06
2.66255e-06
2.84927e-06
2.90577e-06
2.83656e-06
2.66141e-06
2.41007e-06
2.11611e-06
1.81095e-06
1.52008e-06
1.2611e-06
1.04369e-06
8.7073e-07
7.40722e-07
6.48562e-07
5.86805e-07
5.49762e-07
5.31962e-07
5.27949e-07
5.33667e-07
5.45593e-07
5.60757e-07
5.77044e-07
5.93001e-07
6.07709e-07
6.20676e-07
6.31713e-07
6.40847e-07
6.48233e-07
6.5409e-07
6.58655e-07
6.62158e-07
6.64671e-07
2.89925e-07
2.81553e-07
2.75132e-07
2.70118e-07
2.66178e-07
2.63118e-07
2.60842e-07
2.59316e-07
2.58549e-07
2.58574e-07
2.59418e-07
2.611e-07
2.63642e-07
2.67069e-07
2.71491e-07
2.76821e-07
2.82919e-07
2.89619e-07
2.96786e-07
3.0442e-07
3.12784e-07
3.22541e-07
3.34625e-07
3.47942e-07
3.47046e-07
2.85306e-07
1.63588e-07
7.01036e-08
3.06162e-08
1.53782e-08
7.19449e-09
4.45455e-09
3.75929e-09
4.01863e-09
6.4174e-09
1.3747e-08
3.14518e-08
6.73942e-08
1.30983e-07
2.3141e-07
3.74623e-07
5.60033e-07
7.76966e-07
1.00466e-06
1.21645e-06
1.38593e-06
1.49314e-06
1.52871e-06
1.49548e-06
1.40617e-06
1.27847e-06
1.13068e-06
9.78925e-07
8.35554e-07
7.08694e-07
6.02768e-07
5.19473e-07
4.58925e-07
4.18042e-07
3.93909e-07
3.83866e-07
3.84893e-07
3.94156e-07
4.08914e-07
4.26773e-07
4.45781e-07
4.64472e-07
4.81842e-07
4.97296e-07
5.10571e-07
5.21644e-07
5.30653e-07
5.37821e-07
5.43386e-07
5.47315e-07
2.89917e-07
2.81501e-07
2.74973e-07
2.6979e-07
2.65606e-07
2.62193e-07
2.59405e-07
2.57155e-07
2.55395e-07
2.54105e-07
2.53286e-07
2.52948e-07
2.53103e-07
2.53785e-07
2.55101e-07
2.57104e-07
2.5985e-07
2.63418e-07
2.67955e-07
2.73751e-07
2.81369e-07
2.91775e-07
3.05758e-07
3.17508e-07
2.88165e-07
1.72776e-07
6.57337e-08
1.9106e-08
5.99022e-09
2.27496e-09
5.65019e-10
1.58511e-10
7.87238e-11
8.46073e-11
2.65252e-10
1.06328e-09
3.79118e-09
1.06826e-08
2.57998e-08
5.42513e-08
1.01233e-07
1.71052e-07
2.65246e-07
3.81193e-07
5.08547e-07
6.33452e-07
7.41461e-07
8.18139e-07
8.56157e-07
8.55056e-07
8.19982e-07
7.59727e-07
6.84389e-07
6.03418e-07
5.2439e-07
4.52685e-07
3.91694e-07
3.4326e-07
3.08333e-07
2.86463e-07
2.75836e-07
2.7507e-07
2.82504e-07
2.96252e-07
3.14351e-07
3.34935e-07
3.56352e-07
3.77273e-07
3.96731e-07
4.14119e-07
4.29141e-07
4.41747e-07
4.52052e-07
4.6023e-07
4.66064e-07
2.89914e-07
2.8148e-07
2.74902e-07
2.69633e-07
2.65326e-07
2.61752e-07
2.58755e-07
2.56231e-07
2.54107e-07
2.52338e-07
2.50906e-07
2.49808e-07
2.49061e-07
2.48713e-07
2.48853e-07
2.49588e-07
2.51067e-07
2.53504e-07
2.57223e-07
2.62739e-07
2.70911e-07
2.83004e-07
2.98793e-07
3.00465e-07
2.18981e-07
8.54531e-08
2.22604e-08
4.03949e-09
6.96496e-10
1.27867e-10
7.51347e-12
3.95391e-13
8.06191e-14
1.94177e-13
2.28528e-12
5.69273e-11
8.16775e-10
2.47249e-09
7.02988e-09
1.73044e-08
3.61019e-08
6.62953e-08
1.0996e-07
1.68093e-07
2.37671e-07
3.1235e-07
3.85054e-07
4.46839e-07
4.90434e-07
5.11697e-07
5.11032e-07
4.91077e-07
4.56882e-07
4.14169e-07
3.68277e-07
3.23606e-07
2.83419e-07
2.49897e-07
2.24353e-07
2.07395e-07
1.99374e-07
1.99601e-07
2.06891e-07
2.20193e-07
2.3817e-07
2.59344e-07
2.82222e-07
3.05431e-07
3.27823e-07
3.48537e-07
3.67018e-07
3.82993e-07
3.96408e-07
4.07305e-07
4.15209e-07
2.89913e-07
2.81471e-07
2.74869e-07
2.69555e-07
2.65181e-07
2.61518e-07
2.58412e-07
2.55753e-07
2.53466e-07
2.51499e-07
2.49824e-07
2.48437e-07
2.47354e-07
2.46629e-07
2.46352e-07
2.46654e-07
2.47734e-07
2.4988e-07
2.53532e-07
2.59384e-07
2.68563e-07
2.82463e-07
2.97685e-07
2.72795e-07
1.37988e-07
3.43425e-08
6.12137e-09
4.96838e-10
2.01214e-11
1.47453e-13
1e-06
1e-06
1e-06
1e-06
1e-06
5.24705e-11
1.20738e-11
2.41505e-10
1.49896e-09
5.79003e-09
1.51382e-08
3.08748e-08
5.46819e-08
8.73745e-08
1.27782e-07
1.72997e-07
2.1918e-07
2.61227e-07
2.94576e-07
3.15492e-07
3.22897e-07
3.17642e-07
3.02062e-07
2.79314e-07
2.52833e-07
2.25729e-07
2.00495e-07
1.79014e-07
1.62574e-07
1.5197e-07
1.47615e-07
1.4956e-07
1.57687e-07
1.71245e-07
1.89232e-07
2.10595e-07
2.34123e-07
2.58574e-07
2.82795e-07
3.05813e-07
3.26899e-07
3.45592e-07
3.61666e-07
3.75006e-07
3.8486e-07
2.89912e-07
2.81467e-07
2.74852e-07
2.69514e-07
2.65103e-07
2.6139e-07
2.5822e-07
2.55484e-07
2.53105e-07
2.51032e-07
2.49238e-07
2.47716e-07
2.46487e-07
2.45607e-07
2.45172e-07
2.45332e-07
2.46311e-07
2.48447e-07
2.52262e-07
2.58597e-07
2.68801e-07
2.83984e-07
2.93403e-07
2.23091e-07
7.00163e-08
1.10616e-08
1.13879e-09
1.73995e-11
4.28816e-15
1e-06
1e-06
1e-06
1e-06
1e-06
1e-06
1e-06
1.44279e-12
7.96549e-12
2.57661e-10
1.32174e-09
4.83478e-09
1.30608e-08
2.87196e-08
5.06256e-08
7.69778e-08
1.0642e-07
1.36615e-07
1.64445e-07
1.87244e-07
2.02617e-07
2.09567e-07
2.0841e-07
2.00444e-07
1.87554e-07
1.71879e-07
1.55507e-07
1.40226e-07
1.27438e-07
1.18175e-07
1.13151e-07
1.12804e-07
1.17334e-07
1.26716e-07
1.40685e-07
1.58774e-07
1.80151e-07
2.03842e-07
2.28803e-07
2.53971e-07
2.78365e-07
3.01174e-07
3.21811e-07
3.39907e-07
3.55201e-07
3.66672e-07
2.89912e-07
2.81464e-07
2.74843e-07
2.69491e-07
2.6506e-07
2.61318e-07
2.5811e-07
2.55328e-07
2.52894e-07
2.50759e-07
2.48894e-07
2.47295e-07
2.45986e-07
2.45026e-07
2.44517e-07
2.4462e-07
2.45579e-07
2.47763e-07
2.51757e-07
2.58518e-07
2.69535e-07
2.8483e-07
2.79856e-07
1.57253e-07
2.84544e-08
2.498e-09
8.91785e-11
1.20089e-13
1e-06
1e-06
1e-06
1e-06
1e-06
1e-06
1e-06
1e-06
1e-06
5.56521e-11
7.07565e-11
5.30317e-10
1.78083e-09
5.74556e-09
1.47526e-08
2.89802e-08
4.7072e-08
6.8337e-08
8.9998e-08
1.08496e-07
1.23345e-07
1.3324e-07
1.3771e-07
1.37081e-07
1.3227e-07
1.24529e-07
1.15249e-07
1.05786e-07
9.73298e-08
9.08418e-08
8.70581e-08
8.65253e-08
8.96223e-08
9.65746e-08
1.07452e-07
1.22149e-07
1.40373e-07
1.61627e-07
1.85208e-07
2.10225e-07
2.3574e-07
2.6082e-07
2.84633e-07
3.06518e-07
3.2601e-07
3.42725e-07
3.55416e-07
2.89912e-07
2.81463e-07
2.74838e-07
2.69479e-07
2.65035e-07
2.61277e-07
2.58048e-07
2.55239e-07
2.52773e-07
2.506e-07
2.48693e-07
2.47047e-07
2.45691e-07
2.44684e-07
2.44133e-07
2.44207e-07
2.4516e-07
2.47385e-07
2.51508e-07
2.5857e-07
2.70054e-07
2.83661e-07
2.53616e-07
9.43944e-08
8.625e-09
2.97428e-10
5.16939e-12
1e-06
1e-06
1e-06
1e-06
1e-06
1e-06
1e-06
1e-06
1e-06
1e-06
1e-06
7.19891e-11
5.50136e-10
1.06366e-09
2.91672e-09
8.0149e-09
1.69834e-08
2.89905e-08
4.27368e-08
5.65615e-08
6.88328e-08
7.92265e-08
8.54596e-08
8.79158e-08
8.73055e-08
8.44172e-08
8.01332e-08
7.53392e-08
7.08701e-08
6.74549e-08
6.56979e-08
6.60889e-08
6.90251e-08
7.48219e-08
8.3712e-08
9.58286e-08
1.11177e-07
1.29602e-07
1.50762e-07
1.74126e-07
1.98996e-07
2.24533e-07
2.49872e-07
2.74191e-07
2.96797e-07
3.17161e-07
3.34815e-07
3.48341e-07
2.89912e-07
2.81462e-07
2.74835e-07
2.69472e-07
2.65023e-07
2.61256e-07
2.58016e-07
2.55193e-07
2.52711e-07
2.50518e-07
2.48587e-07
2.46917e-07
2.45535e-07
2.44502e-07
2.43929e-07
2.43986e-07
2.44937e-07
2.47183e-07
2.51376e-07
2.586e-07
2.70177e-07
2.80189e-07
2.182e-07
5.15569e-08
2.14148e-09
3.35043e-11
2.42554e-13
1e-06
1e-06
1e-06
1e-06
1e-06
1e-06
1e-06
1e-06
1e-06
1e-06
1e-06
3.98474e-10
7.53942e-10
8.38188e-10
1.61837e-09
4.3149e-09
9.42437e-09
1.64523e-08
2.44007e-08
3.24035e-08
3.97117e-08
4.57548e-08
4.98446e-08
5.20539e-08
5.21321e-08
5.11763e-08
4.98273e-08
4.85883e-08
4.79179e-08
4.82297e-08
4.9895e-08
5.32539e-08
5.8624e-08
6.62986e-08
7.65318e-08
8.95107e-08
1.05318e-07
1.23893e-07
1.44996e-07
1.682e-07
1.92897e-07
2.18344e-07
2.43723e-07
2.68237e-07
2.91185e-07
3.12009e-07
3.30189e-07
3.44199e-07
2.89912e-07
2.81462e-07
2.74834e-07
2.6947e-07
2.65019e-07
2.61249e-07
2.58006e-07
2.55179e-07
2.52691e-07
2.50492e-07
2.48555e-07
2.46877e-07
2.45487e-07
2.44446e-07
2.43866e-07
2.43919e-07
2.44868e-07
2.47122e-07
2.51338e-07
2.5861e-07
2.70108e-07
2.7689e-07
1.90969e-07
3.16445e-08
9.67841e-10
8.82246e-12
4.38256e-14
1e-06
1e-06
1e-06
1e-06
1e-06
1e-06
1e-06
1e-06
1e-06
1e-06
1e-06
1.61182e-10
3.8178e-10
5.54139e-10
1.076e-09
2.76548e-09
5.94706e-09
1.02228e-08
1.48614e-08
1.94413e-08
2.36954e-08
2.74137e-08
3.03594e-08
3.24781e-08
3.3506e-08
3.3992e-08
3.45164e-08
3.5413e-08
3.69077e-08
3.92645e-08
4.27572e-08
4.76711e-08
5.43031e-08
6.29503e-08
7.38867e-08
8.73302e-08
1.03401e-07
1.22079e-07
1.43171e-07
1.66294e-07
1.90882e-07
2.16228e-07
2.41547e-07
2.66059e-07
2.89068e-07
3.10011e-07
3.28352e-07
3.42522e-07
2.89912e-07
2.81462e-07
2.74835e-07
2.69472e-07
2.65023e-07
2.61256e-07
2.58016e-07
2.55193e-07
2.52711e-07
2.50518e-07
2.48588e-07
2.46919e-07
2.45537e-07
2.44506e-07
2.43935e-07
2.43996e-07
2.4495e-07
2.472e-07
2.51397e-07
2.58645e-07
2.70532e-07
2.83971e-07
2.40665e-07
6.5934e-08
2.71922e-09
3.65169e-11
2.79313e-13
1e-06
1e-06
1e-06
1e-06
1e-06
1e-06
1e-06
1e-06
1e-06
1e-06
1e-06
3.97797e-10
7.09548e-10
7.57113e-10
1.407e-09
3.65542e-09
7.74739e-09
1.30966e-08
1.88955e-08
2.4542e-08
2.95779e-08
3.37865e-08
3.66939e-08
3.83968e-08
3.86642e-08
3.84935e-08
3.83563e-08
3.85938e-08
3.95146e-08
4.14102e-08
4.45611e-08
4.92471e-08
5.57518e-08
6.43542e-08
7.53082e-08
8.88101e-08
1.04958e-07
1.23713e-07
1.44861e-07
1.68003e-07
1.92568e-07
2.17844e-07
2.43051e-07
2.67414e-07
2.9025e-07
3.1101e-07
3.29173e-07
3.43196e-07
2.89912e-07
2.81463e-07
2.74838e-07
2.69479e-07
2.65035e-07
2.61277e-07
2.58048e-07
2.55239e-07
2.52774e-07
2.50601e-07
2.48694e-07
2.4705e-07
2.45695e-07
2.44692e-07
2.44146e-07
2.44226e-07
2.45187e-07
2.47419e-07
2.51546e-07
2.58628e-07
2.70431e-07
2.87766e-07
2.85434e-07
1.46784e-07
1.53625e-08
3.40559e-10
5.85758e-12
1e-06
1e-06
1e-06
1e-06
1e-06
1e-06
1e-06
1e-06
1e-06
1e-06
1e-06
6.99144e-11
3.86757e-10
8.06572e-10
2.31328e-09
6.23674e-09
1.27858e-08
2.11404e-08
3.03879e-08
3.94511e-08
4.7237e-08
5.3697e-08
5.73082e-08
5.85899e-08
5.82239e-08
5.6794e-08
5.48973e-08
5.31021e-08
5.19352e-08
5.18607e-08
5.32787e-08
5.65387e-08
6.19532e-08
6.97982e-08
8.02997e-08
9.36073e-08
1.09759e-07
1.28644e-07
1.49979e-07
1.73296e-07
1.97968e-07
2.23235e-07
2.48288e-07
2.72359e-07
2.9479e-07
3.15069e-07
3.32725e-07
3.463e-07
2.89912e-07
2.81464e-07
2.74843e-07
2.69491e-07
2.6506e-07
2.61318e-07
2.5811e-07
2.55328e-07
2.52895e-07
2.50759e-07
2.48895e-07
2.47298e-07
2.45992e-07
2.45038e-07
2.44537e-07
2.4465e-07
2.45619e-07
2.47814e-07
2.51811e-07
2.58581e-07
2.69794e-07
2.87565e-07
3.03609e-07
2.32292e-07
5.48514e-08
2.85351e-09
9.67983e-11
1.32366e-13
1e-06
1e-06
1e-06
1e-06
1e-06
1e-06
1e-06
1e-06
1e-06
5.53842e-11
6.50716e-11
3.68795e-10
1.35027e-09
4.39401e-09
1.09991e-08
2.09735e-08
3.31604e-08
4.70154e-08
6.06088e-08
7.17124e-08
8.03705e-08
8.59618e-08
8.83837e-08
8.79767e-08
8.53931e-08
8.14519e-08
7.70306e-08
7.29736e-08
7.00247e-08
6.87986e-08
6.97911e-08
7.34026e-08
7.99421e-08
8.96225e-08
1.02541e-07
1.18651e-07
1.37735e-07
1.59394e-07
1.83035e-07
2.07891e-07
2.33126e-07
2.57902e-07
2.81464e-07
3.032e-07
3.22663e-07
3.3946e-07
3.52279e-07
2.89912e-07
2.81467e-07
2.74852e-07
2.69514e-07
2.65103e-07
2.6139e-07
2.5822e-07
2.55484e-07
2.53105e-07
2.51034e-07
2.49241e-07
2.47721e-07
2.46497e-07
2.45626e-07
2.45202e-07
2.45375e-07
2.4637e-07
2.4852e-07
2.52341e-07
2.58674e-07
2.68965e-07
2.85478e-07
3.07065e-07
2.86773e-07
1.18542e-07
1.27171e-08
1.1757e-09
1.74668e-11
4.30584e-15
1e-06
1e-06
1e-06
1e-06
1e-06
1e-06
1e-06
1.42712e-12
6.30136e-12
1.22459e-10
9.30284e-10
3.65745e-09
9.7871e-09
2.08884e-08
3.57134e-08
5.28307e-08
7.13984e-08
9.00309e-08
1.06896e-07
1.20522e-07
1.29591e-07
1.33679e-07
1.3311e-07
1.28758e-07
1.21818e-07
1.13624e-07
1.05476e-07
9.84885e-08
9.35587e-08
9.13784e-08
9.24636e-08
9.7169e-08
1.05691e-07
1.18063e-07
1.34118e-07
1.53512e-07
1.75588e-07
1.9953e-07
2.24449e-07
2.4943e-07
2.73617e-07
2.96291e-07
3.16914e-07
3.35132e-07
3.50662e-07
3.62388e-07
2.89913e-07
2.81471e-07
2.74869e-07
2.69555e-07
2.65181e-07
2.61518e-07
2.58412e-07
2.55753e-07
2.53467e-07
2.51501e-07
2.49829e-07
2.48446e-07
2.47371e-07
2.46659e-07
2.46399e-07
2.46723e-07
2.47826e-07
2.49993e-07
2.53655e-07
2.59501e-07
2.68697e-07
2.83203e-07
3.04505e-07
3.13392e-07
2.02594e-07
4.14201e-08
6.26042e-09
4.79293e-10
1.91004e-11
1.38636e-13
1e-06
1e-06
1e-06
1e-06
1e-06
5.05286e-11
8.44546e-12
1.41664e-10
1.09699e-09
4.3854e-09
1.13327e-08
2.24718e-08
3.87285e-08
6.04969e-08
8.68215e-08
1.15797e-07
1.45057e-07
1.7142e-07
1.92197e-07
2.05199e-07
2.0997e-07
2.07154e-07
1.98266e-07
1.85304e-07
1.70424e-07
1.55585e-07
1.42366e-07
1.31998e-07
1.25368e-07
1.2307e-07
1.25469e-07
1.32669e-07
1.44669e-07
1.6092e-07
1.80647e-07
2.02998e-07
2.26987e-07
2.51584e-07
2.75816e-07
2.98848e-07
3.2004e-07
3.38968e-07
3.55405e-07
3.69198e-07
3.79467e-07
2.89914e-07
2.8148e-07
2.74902e-07
2.69633e-07
2.65326e-07
2.61752e-07
2.58756e-07
2.56232e-07
2.54109e-07
2.52343e-07
2.50916e-07
2.49828e-07
2.49095e-07
2.48768e-07
2.48936e-07
2.49703e-07
2.51216e-07
2.53684e-07
2.57419e-07
2.62928e-07
2.71078e-07
2.8338e-07
3.01818e-07
3.20994e-07
2.76743e-07
1.04513e-07
2.40052e-08
3.87191e-09
6.11602e-10
1.16431e-10
6.90244e-12
3.60024e-13
7.24728e-14
1.75557e-13
2.03584e-12
4.81945e-11
3.23175e-10
1.69523e-09
5.39841e-09
1.30562e-08
2.65433e-08
4.77004e-08
7.77974e-08
1.17426e-07
1.64312e-07
2.14157e-07
2.62374e-07
3.03117e-07
3.3181e-07
3.45988e-07
3.46117e-07
3.34007e-07
3.13002e-07
2.86837e-07
2.5897e-07
2.32266e-07
2.08887e-07
1.90329e-07
1.77557e-07
1.71083e-07
1.71332e-07
1.77812e-07
1.89649e-07
2.06072e-07
2.26051e-07
2.48418e-07
2.71971e-07
2.95583e-07
3.18293e-07
3.39362e-07
3.58297e-07
3.74837e-07
3.88905e-07
4.00491e-07
4.08962e-07
2.89917e-07
2.81501e-07
2.74973e-07
2.6979e-07
2.65606e-07
2.62193e-07
2.59405e-07
2.57157e-07
2.55399e-07
2.54116e-07
2.53308e-07
2.52987e-07
2.53168e-07
2.53885e-07
2.55244e-07
2.57294e-07
2.60087e-07
2.63692e-07
2.68247e-07
2.74026e-07
2.81588e-07
2.91994e-07
3.06943e-07
3.26205e-07
3.23251e-07
2.0363e-07
7.19215e-08
1.86644e-08
5.16959e-09
1.88108e-09
5.00039e-10
1.41602e-10
7.05301e-11
7.51769e-11
2.31027e-10
8.87335e-10
2.99754e-09
8.39998e-09
1.98862e-08
4.09675e-08
7.52653e-08
1.25689e-07
1.93202e-07
2.75882e-07
3.66158e-07
4.54315e-07
5.30313e-07
5.84151e-07
6.11048e-07
6.10989e-07
5.87709e-07
5.47385e-07
4.97038e-07
4.43186e-07
3.91028e-07
3.44269e-07
3.053e-07
2.75508e-07
2.55799e-07
2.45881e-07
2.44323e-07
2.502e-07
2.62286e-07
2.79148e-07
2.9926e-07
3.21146e-07
3.43468e-07
3.65129e-07
3.85308e-07
4.03469e-07
4.19333e-07
4.32834e-07
4.44048e-07
4.53092e-07
4.59581e-07
2.89925e-07
2.81553e-07
2.75132e-07
2.70118e-07
2.66178e-07
2.63118e-07
2.60843e-07
2.5932e-07
2.58559e-07
2.58595e-07
2.5946e-07
2.61173e-07
2.63758e-07
2.67238e-07
2.71716e-07
2.77101e-07
2.83244e-07
2.89967e-07
2.9712e-07
3.04688e-07
3.12925e-07
3.22525e-07
3.34773e-07
3.50802e-07
3.62553e-07
3.13526e-07
1.76298e-07
6.86404e-08
2.65002e-08
1.26319e-08
6.23815e-09
3.69002e-09
3.05217e-09
3.36175e-09
5.43437e-09
1.14375e-08
2.54402e-08
5.32929e-08
1.01984e-07
1.78352e-07
2.86865e-07
4.2714e-07
5.91146e-07
7.63251e-07
9.23372e-07
1.05163e-06
1.13306e-06
1.16076e-06
1.13713e-06
1.07204e-06
9.78845e-07
8.71203e-07
7.6103e-07
6.57408e-07
5.66321e-07
4.91086e-07
4.33116e-07
3.928e-07
3.67407e-07
3.54825e-07
3.53117e-07
3.59961e-07
3.73173e-07
3.90591e-07
4.103e-07
4.30707e-07
4.5059e-07
4.69089e-07
4.85672e-07
5.00087e-07
5.12293e-07
5.22395e-07
5.30581e-07
5.37044e-07
5.41595e-07
2.8995e-07
2.81692e-07
2.755e-07
2.70868e-07
2.67575e-07
2.6553e-07
2.6474e-07
2.65242e-07
2.67165e-07
2.70669e-07
2.7581e-07
2.8263e-07
2.91143e-07
3.01375e-07
3.13182e-07
3.26161e-07
3.39782e-07
3.5348e-07
3.66761e-07
3.79337e-07
3.91267e-07
4.03089e-07
4.159e-07
4.31094e-07
4.47236e-07
4.42176e-07
3.61133e-07
2.18433e-07
1.15653e-07
6.72743e-08
4.4161e-08
3.46132e-08
3.37708e-08
4.18242e-08
6.80513e-08
1.25085e-07
2.28052e-07
3.89561e-07
6.15613e-07
9.02548e-07
1.23264e-06
1.5742e-06
1.88875e-06
2.13861e-06
2.29565e-06
2.34719e-06
2.29663e-06
2.16007e-06
1.96181e-06
1.72923e-06
1.48772e-06
1.25775e-06
1.05348e-06
8.82714e-07
7.47862e-07
6.48067e-07
5.78905e-07
5.34029e-07
5.09204e-07
5.00003e-07
5.01945e-07
5.1176e-07
5.26564e-07
5.4387e-07
5.61898e-07
5.79396e-07
5.95555e-07
6.09917e-07
6.22292e-07
6.32688e-07
6.41235e-07
6.48133e-07
6.53607e-07
6.57859e-07
6.60834e-07
2.90039e-07
2.82057e-07
2.76477e-07
2.73046e-07
2.71799e-07
2.7279e-07
2.76207e-07
2.82085e-07
2.90592e-07
3.0198e-07
3.16461e-07
3.3416e-07
3.55045e-07
3.79031e-07
4.05159e-07
4.32549e-07
4.60233e-07
4.87342e-07
5.13288e-07
5.37927e-07
5.61681e-07
5.85628e-07
6.11528e-07
6.41686e-07
6.77791e-07
7.14122e-07
7.20228e-07
6.47826e-07
5.16867e-07
4.06934e-07
3.47549e-07
3.41196e-07
3.92916e-07
5.52978e-07
8.56287e-07
1.31694e-06
1.92005e-06
2.61656e-06
3.33699e-06
4.00586e-06
4.55021e-06
4.91428e-06
5.07367e-06
5.02649e-06
4.79197e-06
4.40647e-06
3.91649e-06
3.37223e-06
2.8224e-06
2.30902e-06
1.86188e-06
1.496e-06
1.21319e-06
1.00616e-06
8.62606e-07
7.68243e-07
7.10737e-07
6.80039e-07
6.67908e-07
6.68589e-07
6.77413e-07
6.90899e-07
7.06541e-07
7.22589e-07
7.37909e-07
7.51842e-07
7.64075e-07
7.74542e-07
7.83268e-07
7.90413e-07
7.96171e-07
8.00745e-07
8.04341e-07
8.07128e-07
8.09145e-07
2.90327e-07
2.83168e-07
2.79835e-07
2.80664e-07
2.85909e-07
2.94764e-07
3.07371e-07
3.23912e-07
3.44694e-07
3.7016e-07
4.007e-07
4.36459e-07
4.77277e-07
5.21895e-07
5.69043e-07
6.1763e-07
6.66829e-07
7.16371e-07
7.66781e-07
8.19575e-07
8.77448e-07
9.4451e-07
1.02659e-06
1.13158e-06
1.26943e-06
1.44945e-06
1.66739e-06
1.90154e-06
2.12239e-06
2.3427e-06
2.63745e-06
3.11544e-06
3.91389e-06
5.08398e-06
6.4263e-06
7.80422e-06
9.06862e-06
1.00971e-05
1.08e-05
1.11128e-05
1.09881e-05
1.04672e-05
9.61919e-06
8.53398e-06
7.3103e-06
6.05111e-06
4.85342e-06
3.79317e-06
2.9151e-06
2.23089e-06
1.7262e-06
1.37109e-06
1.13128e-06
9.77579e-07
8.84362e-07
8.32474e-07
8.07898e-07
8.01512e-07
8.06808e-07
8.19138e-07
8.3516e-07
8.52545e-07
8.69709e-07
8.85604e-07
8.99651e-07
9.11703e-07
9.21901e-07
9.30448e-07
9.37431e-07
9.43082e-07
9.476e-07
9.51177e-07
9.54e-07
9.56231e-07
9.57984e-07
2.91405e-07
2.8803e-07
2.93976e-07
3.06403e-07
3.22733e-07
3.4271e-07
3.66364e-07
3.94239e-07
4.27321e-07
4.66632e-07
5.12829e-07
5.65915e-07
6.25194e-07
6.89478e-07
7.57867e-07
8.29952e-07
9.06303e-07
9.88892e-07
1.08148e-06
1.19005e-06
1.32342e-06
1.49404e-06
1.71924e-06
2.02257e-06
2.43465e-06
2.99014e-06
3.68427e-06
4.55067e-06
5.62611e-06
6.96583e-06
8.66122e-06
1.08159e-05
1.32492e-05
1.55153e-05
1.75478e-05
1.91626e-05
2.02168e-05
2.05786e-05
2.01565e-05
1.89174e-05
1.67367e-05
1.40204e-05
1.12173e-05
8.67388e-06
6.57075e-06
4.93434e-06
3.70254e-06
2.79041e-06
2.12457e-06
1.64937e-06
1.32143e-06
1.10491e-06
9.69333e-07
8.89743e-07
8.48323e-07
8.32542e-07
8.3371e-07
8.46064e-07
8.65456e-07
8.88766e-07
9.13601e-07
9.3813e-07
9.60993e-07
9.81211e-07
9.98102e-07
1.01157e-06
1.02268e-06
1.03174e-06
1.03918e-06
1.04515e-06
1.04989e-06
1.05364e-06
1.05661e-06
1.05902e-06
1.06105e-06
)
;

boundaryField
{
    ibCylinder
    {
        type            immersedBoundaryNutWallFunction;
        patchType       immersedBoundary;
        blending        stepwise;
        value           nonuniform List<scalar> 0();
    }
    in
    {
        type            zeroGradient;
    }
    out
    {
        type            zeroGradient;
    }
    top
    {
        type            zeroGradient;
    }
    bottom
    {
        type            zeroGradient;
    }
    frontAndBack
    {
        type            empty;
    }
}


// ************************************************************************* //
