/*--------------------------------*- C++ -*----------------------------------*\
| =========                 |                                                 |
| \\      /  F ield         | OpenFOAM: The Open Source CFD Toolbox           |
|  \\    /   O peration     | Version:  2206                                  |
|   \\  /    A nd           | Website:  www.openfoam.com                      |
|    \\/     M anipulation  |                                                 |
\*---------------------------------------------------------------------------*/
FoamFile
{
    version     2.0;
    format      ascii;
    arch        "LSB;label=32;scalar=64";
    class       volScalarField;
    location    "1";
    object      omega;
}
// * * * * * * * * * * * * * * * * * * * * * * * * * * * * * * * * * * * * * //

dimensions      [0 0 -1 0 0 0 0];

internalField   nonuniform List<scalar> 
1875
(
293.475
184.592
128.089
95.0993
74.2471
60.4468
50.9403
44.1481
39.1442
35.3669
32.4654
30.2151
28.4744
27.1425
26.1579
25.4817
25.0934
24.9902
25.186
25.713
26.6236
27.9916
29.9124
32.4995
35.8724
40.1203
44.7978
50.1314
56.3989
63.9188
73.0352
83.8463
94.4097
102.23
107.48
109.775
109.201
106.032
100.71
93.6775
84.4344
74.5972
65.2573
56.9364
49.7745
43.7019
38.57
34.2324
30.5799
27.5408
25.0637
23.0992
21.5928
20.4647
19.6549
19.103
18.753
18.5629
18.4952
18.5166
18.5979
18.7143
18.8455
18.9744
19.0869
19.176
19.2536
19.3199
19.3779
19.4264
19.4662
19.4983
19.5235
19.5424
19.555
293.24
189.697
135.16
102.425
81.1656
66.4589
55.9036
48.1148
42.2324
37.7028
34.1594
31.3535
29.1123
27.3169
25.8785
24.7344
23.8386
23.159
22.674
22.3716
22.249
22.312
22.5751
23.0616
23.8084
24.8837
26.4108
28.6505
31.8585
36.0696
40.9628
45.7953
50.5159
55.4551
60.4965
65.2481
69.334
72.4747
74.4977
75.3059
74.7748
72.944
69.9574
65.9946
61.2711
56.052
50.6345
45.3029
40.3027
35.8216
31.9749
28.7798
26.1799
24.15
22.6144
21.4602
20.5887
19.9406
19.4654
19.1238
18.8834
18.7195
18.6122
18.5448
18.5046
18.4829
18.4748
18.4767
18.4835
18.4932
18.504
18.5145
18.5239
18.5308
18.5324
293.164
190.006
136.886
105.184
84.3673
69.7991
59.1574
51.1153
44.8818
39.9589
36.0132
32.8114
30.1856
28.0126
26.2063
24.6982
23.436
22.38
21.5009
20.779
20.2043
19.7766
19.507
19.4247
19.6114
20.3234
22.2411
26.5991
34.1747
44.5203
56.1976
64.1371
68.1668
68.8236
68.9169
68.7201
68.4405
68.1657
67.9021
67.6227
67.2546
66.5783
65.5019
63.9385
61.8183
59.1055
55.8144
52.0249
47.8897
43.6227
39.4535
35.5737
32.1105
29.1239
26.6036
24.5677
22.9371
21.6362
20.5926
19.7639
19.1077
18.5928
18.1931
17.8861
17.6536
17.48
17.3525
17.2608
17.1957
17.1505
17.1198
17.0993
17.0859
17.0767
17.068
293.088
189.333
136.397
105.253
84.9868
70.8325
60.4304
52.4902
46.2627
41.2815
37.2279
33.8811
31.0867
28.7303
26.7289
25.0199
23.5545
22.2957
21.2168
20.3012
19.5426
18.9473
18.5395
18.3924
18.7752
20.6602
26.6882
41.6336
66.9493
98.4874
136.548
156.403
159.384
150.853
139.402
127.409
115.95
105.588
96.5344
88.7816
82.2405
76.7444
72.1021
68.097
64.5151
61.1708
57.9045
54.5892
51.1537
47.5869
43.9385
40.3043
36.7986
33.526
30.5569
27.914
25.6269
23.7072
22.1047
20.7786
19.6787
18.781
18.0578
17.4786
17.0202
16.6619
16.3856
16.1753
16.0171
15.8997
15.8136
15.7512
15.7063
15.6744
15.6509
293.045
188.861
135.612
104.488
84.4439
70.5692
60.4275
52.7024
46.6319
41.7467
37.7391
34.3991
31.5823
29.1829
27.1214
25.3397
23.7933
22.4496
21.2857
20.2898
19.4619
18.8182
18.4104
18.4304
19.7249
25.502
44.1795
91.3301
166.576
246.617
373.878
440.27
417.487
363.243
306.469
255.535
212.944
179.053
152.265
131.009
114.097
100.593
89.7824
81.0281
73.846
67.845
62.7157
58.1976
54.0908
50.2542
46.5979
43.0783
39.6954
36.4756
33.4541
30.6631
28.1232
25.8387
23.8383
22.1159
20.6495
19.4102
18.3786
17.5296
16.8389
16.284
15.8438
15.499
15.2323
15.0284
14.8743
14.7593
14.6742
14.6123
14.5687
293.023
188.607
135.064
103.768
83.6921
69.8883
59.8733
52.2943
46.3645
41.5998
37.6889
34.4239
31.6605
29.2945
27.2494
25.4697
23.9142
22.5538
21.37
20.3556
19.5178
18.8881
18.5751
19.077
22.8432
39.0932
90.1371
223.562
438.403
634.743
1170.98
1724.32
1672.54
1249.07
805.05
520.304
357.563
270.754
213.141
173.406
145.12
123.99
107.682
94.7826
84.3547
75.8157
68.8327
62.9139
57.7816
53.2261
49.1036
45.3156
41.7979
38.5167
35.4567
32.6149
29.9938
27.5969
25.4218
23.4746
21.7654
20.2842
19.0176
17.9486
17.0582
16.3263
15.7325
15.2568
14.8805
14.5866
14.3597
14.1866
14.0561
13.9593
13.8916
293.013
188.475
134.747
103.286
83.1051
69.259
59.254
51.7212
45.858
41.1681
37.3317
34.1352
31.4315
29.1149
27.1102
25.3619
23.8299
22.4869
21.3171
20.3177
19.5042
18.9327
18.8319
20.4421
30.2683
71.6484
194.583
557.818
1256.95
1999.65
5652.01
15387.1
25011.6
14991.1
5425.85
1889.5
656.305
341.061
243.092
186.598
152.993
130.246
113.355
100.086
89.2839
80.2243
72.6313
66.1436
60.5173
55.5237
51.0982
47.0808
43.3989
40.0019
36.8596
33.9547
31.2769
28.8195
26.5784
24.5509
22.73
21.1173
19.7115
18.5012
17.473
16.611
15.8976
15.3147
14.8446
14.4702
14.1758
13.947
13.7715
13.6392
13.5462
293.007
188.406
134.566
102.991
82.7163
68.8045
58.7629
51.2192
45.3653
40.6991
36.8954
33.7359
31.0691
28.7889
26.8179
25.0998
23.5945
22.2752
21.128
20.1541
19.3791
18.8998
19.1914
23.1869
46.95
143.714
413.452
1478.35
4935.47
45572.7
500
500
500
500
500
39442.3
4604.72
705.186
289.754
181.796
140.827
119.799
105.799
95.1767
86.4286
78.878
72.2094
66.2708
60.969
56.1663
51.8017
47.7987
44.1116
40.6979
37.5404
34.6252
31.935
29.4644
27.2086
25.1635
23.3238
21.6832
20.2326
18.9655
17.8724
16.9405
16.1556
15.5028
14.9667
14.5319
14.1838
13.9087
13.6942
13.53
13.4139
293.004
188.366
134.459
102.811
82.4691
68.5024
58.42
50.8492
44.9808
40.3108
36.5116
33.3623
30.7098
28.446
26.4923
24.7914
23.3027
21.9998
20.8699
19.9183
19.1841
18.8308
19.8214
28.7695
83.6834
299.619
889.585
4976.32
383478
500
500
500
500
500
500
500
239092
4569.06
603.182
238.27
146.086
109.441
92.2929
83.6636
77.7151
72.5602
67.7355
63.1572
58.8127
54.6837
50.7703
47.0753
43.5987
40.3369
37.2891
34.4568
31.8387
29.4346
27.242
25.2562
23.4702
21.8748
20.4596
19.2133
18.1244
17.1823
16.3759
15.6936
15.1232
14.6523
14.2689
13.9608
13.7167
13.5272
13.392
293.002
188.342
134.394
102.699
82.3126
68.3073
58.1931
50.5976
44.7111
40.0291
36.2231
33.0712
30.4196
28.1589
26.2096
24.5141
23.0314
21.735
20.6137
19.6768
18.9803
18.7971
21.0197
40.0946
166.607
663.106
2056.32
48367.1
500
500
500
500
500
500
500
500
500
37366.3
1836.73
365.339
170.422
107.039
82.1908
71.7861
66.8283
63.4335
60.3624
57.3508
54.2265
51.0404
47.8485
44.7034
41.6486
38.7191
35.9406
33.3346
30.9165
28.6946
26.6702
24.8385
23.1906
21.7149
20.3988
19.2301
18.1979
17.2922
16.5042
15.8257
15.2484
14.7637
14.3622
14.0345
13.771
13.5637
13.4144
293.001
188.327
134.354
102.63
82.216
68.1859
58.0505
50.4375
44.5368
39.8438
36.0295
32.8719
30.2164
27.9532
26.0022
24.3056
22.8223
21.5261
20.4066
19.4773
18.8148
18.8638
23.2163
63.0002
374.465
1684.14
5885.63
500
500
500
500
500
500
500
500
500
500
500
5194.54
573.272
200.55
109.269
75.6836
61.9603
56.3196
53.693
51.9041
50.1392
47.9917
45.6836
43.2795
40.8215
38.3529
35.9313
33.5959
31.3814
29.3125
27.4025
25.6548
24.0652
22.6249
21.3231
20.1483
19.0908
18.1422
17.2962
16.5477
15.8921
15.3249
14.8408
14.4339
14.097
13.8227
13.6044
13.4459
293.001
188.319
134.332
102.592
82.163
68.119
57.9717
50.3485
44.4394
39.7394
35.9195
32.7573
30.0981
27.8316
25.8777
24.1784
22.6925
21.3939
20.273
19.3464
18.7142
19.0597
26.7412
104.895
836.152
3858.69
16752.4
500
500
500
500
500
500
500
500
500
500
500
13723.6
855.81
236.618
114.219
73.14
55.7488
48.5056
45.5951
44.1694
43.0458
41.7656
40.2559
38.3873
36.5757
34.7128
32.8544
31.0308
29.274
27.6099
26.0525
24.6068
23.2713
22.0408
20.9086
19.8682
18.9143
18.0435
17.2537
16.5439
15.9133
15.3603
14.8827
14.4766
14.137
13.8579
13.634
13.4704
293
188.316
134.325
102.58
82.1457
68.0974
57.9462
50.3197
44.4079
39.7056
35.8838
32.72
30.0593
27.7913
25.836
24.1352
22.6478
21.3476
20.2253
19.2989
18.6829
19.2586
30.259
156.106
1266.24
6242.96
28766.4
500
500
500
500
500
500
500
500
500
500
500
21947.3
1066.2
253.778
116.819
73.356
53.7972
45.3653
42.0089
40.5279
39.5615
38.583
37.4185
35.9421
34.4121
32.8523
31.2738
29.7309
28.22
26.7685
25.392
24.0975
22.8862
21.7559
20.7033
19.7252
18.8193
17.9846
17.2215
16.5307
15.913
15.3684
14.8955
14.4915
14.1522
13.8723
13.6467
13.4816
293.001
188.319
134.332
102.592
82.1629
68.119
57.9716
50.3484
44.4393
39.7393
35.9193
32.7571
30.0979
27.8313
25.8773
24.1779
22.6918
21.393
20.2717
19.3431
18.6918
18.835
24.5087
85.8962
733.912
3862.29
16752.4
500
500
500
500
500
500
500
500
500
500
500
13723.6
854.516
234.219
112.954
72.2431
55.3117
48.3728
45.5836
44.2056
43.1008
41.8208
40.3018
38.4173
36.5851
34.6987
32.818
30.9749
29.2031
27.5288
25.9664
24.5203
23.1884
21.9645
20.8411
19.8108
18.8676
18.0073
17.2275
16.5266
15.9034
15.3565
14.8835
14.4806
14.143
13.865
13.6413
13.4776
293.001
188.327
134.354
102.63
82.216
68.1858
58.0504
50.4373
44.5366
39.8435
36.0292
32.8714
30.2159
27.9525
26.0014
24.3046
22.821
21.5244
20.4043
19.4723
18.7888
18.6261
20.9262
43.3648
253.469
1700.59
5885.63
500
500
500
500
500
500
500
500
500
500
500
5194.54
572.415
195.971
107.194
74.5744
61.476
56.1713
53.7057
51.9936
50.2627
48.1172
45.7914
43.3558
40.8566
38.344
35.8807
33.5092
31.2662
29.1778
27.2573
25.5074
23.9228
22.4934
21.2066
20.0496
19.0109
18.0813
17.253
16.5203
15.8781
15.3215
14.8454
14.4438
14.1101
13.8372
13.619
13.4599
293.002
188.342
134.394
102.699
82.3125
68.3071
58.1929
50.5974
44.7108
40.0287
36.2226
33.0706
30.4189
28.158
26.2085
24.5127
23.0295
21.7327
20.6107
19.6715
18.9598
18.6378
19.6042
28.8602
102.495
670.113
2056.32
48367.1
500
500
500
500
500
500
500
500
500
37366.3
1836.73
365.042
165.923
104.495
80.9929
71.296
66.7038
63.5189
60.5601
57.5937
54.4634
51.239
47.9898
44.7792
41.6591
38.67
35.8413
33.1966
30.7522
28.5162
26.4888
24.6638
23.0303
21.5744
20.2816
19.1377
18.13
17.2471
16.479
15.8171
15.2526
14.7769
14.3811
14.0563
13.7934
13.5852
13.4343
293.004
188.366
134.459
102.811
82.469
68.5022
58.4197
50.8489
44.9804
40.3103
36.5109
33.3615
30.7087
28.4448
26.4908
24.7896
23.3006
21.9972
20.8666
19.9133
19.1698
18.7398
19.0825
23.394
56.3597
297.881
910.481
4976.32
383478
500
500
500
500
500
500
500
239092
4569.06
601.754
238.166
142.488
107.346
91.3186
83.3201
77.766
72.8325
68.1039
63.5361
59.1473
54.9456
50.9468
47.1641
43.6055
40.2727
37.1682
34.2943
31.6501
29.2345
27.0433
25.0696
23.3037
21.7339
20.3472
19.1301
18.0691
17.1518
16.3664
15.7006
15.1421
14.6789
14.2993
13.9921
13.7466
13.5543
13.4161
293.007
188.405
134.566
102.991
82.7162
68.8043
58.7626
51.2188
45.3647
40.6984
36.8945
33.7347
31.0678
28.7874
26.8162
25.0978
23.5923
22.2727
21.1251
20.1501
19.3702
18.8528
18.8374
20.7439
35.0466
134.266
428.565
1504.91
4935.47
45572.7
500
500
500
500
500
39442.3
4604.72
702.384
288.101
178.362
138.138
118.299
105.18
95.1107
86.678
79.2691
72.6309
66.6544
61.2765
56.3804
51.9193
47.824
44.0554
40.575
37.3679
34.4207
31.7154
29.245
27.0023
24.9801
23.1699
21.5626
20.1462
18.9112
17.8466
16.9386
16.1724
15.5329
15.0048
14.5737
14.2257
13.9481
13.7293
13.5599
13.439
293.013
188.475
134.747
103.286
83.105
69.2588
59.2535
51.7206
45.8572
41.1671
37.3304
34.1337
31.4298
29.1131
27.1083
25.36
23.8282
22.4853
21.3155
20.3159
19.5004
18.9122
18.6795
19.4173
25.3298
64.3649
192.756
580.412
1320.05
1999.65
5652.01
15387.1
25011.6
14991.1
5425.85
1889.5
654.803
340.195
233.516
181.622
150.535
129.121
112.952
100.069
89.4598
80.4721
72.8738
66.3362
60.6373
55.5625
51.0574
46.9689
43.2283
39.7877
36.6184
33.7035
31.0315
28.5936
26.3825
24.392
22.6118
21.039
19.6696
18.4911
17.4886
16.6457
15.945
15.369
14.9008
14.5244
14.2252
13.99
13.8071
13.6674
13.568
293.023
188.607
135.064
103.768
83.6919
69.8879
59.8727
52.2935
46.3634
41.5984
37.6873
34.4221
31.6587
29.2927
27.2479
25.4685
23.9137
22.5539
21.3708
20.3571
19.5192
18.8836
18.5204
18.6913
20.9617
35.2772
87.3353
232.27
481.987
691.047
1180.4
1723.13
1671.26
1248.65
804.946
520.523
358.25
265.523
208.507
170.465
143.327
122.971
107.15
94.5324
84.2501
75.7675
68.786
62.8382
57.6625
53.0597
48.893
45.0689
41.5265
38.2338
35.1769
32.3521
29.7607
27.4033
25.2742
23.3745
21.7096
20.268
19.0342
17.9905
17.1173
16.3955
15.8053
15.3282
14.9467
14.6451
14.4091
14.2264
14.0865
13.9811
13.9065
293.045
188.861
135.612
104.488
84.4436
70.5687
60.4266
52.7012
46.6305
41.7451
37.7374
34.3974
31.5808
29.1818
27.1209
25.3399
23.7945
22.452
21.2895
20.2949
19.4679
18.8233
18.3994
18.3084
19.09
23.9264
42.6232
95.0103
187.689
280.179
392.504
471.18
447.301
374.945
310.051
255.573
212.018
177.962
151.349
130.381
113.709
100.37
89.6526
80.9343
73.7496
67.7231
62.558
58.0021
53.8611
49.9971
46.3222
42.7943
39.4146
36.2103
33.2162
30.463
27.9688
25.7345
23.7821
22.103
20.6733
19.4629
18.4515
17.6145
16.9285
16.3723
15.9264
15.5728
15.2954
15.0803
14.915
14.7895
14.6949
14.6248
14.575
293.088
189.333
136.397
105.253
84.9864
70.8318
60.4294
52.4889
46.2612
41.2799
37.2263
33.8797
31.0857
28.7299
26.7294
25.0213
23.5572
22.2998
21.2223
20.308
19.5506
18.9556
18.5437
18.3645
18.5943
20.136
26.0614
42.8868
74.8454
113.474
151.807
176.616
178.438
164.892
149.91
135.118
121.526
109.583
99.3701
90.7726
83.6092
77.6554
72.6782
68.429
64.6706
61.1996
57.8433
54.4655
50.9886
47.3974
43.7394
40.109
36.6198
33.3749
30.4422
27.8418
25.5975
23.7159
22.1466
20.8468
19.7655
18.8788
18.1594
17.5783
17.1132
16.7453
16.4575
16.235
16.0647
15.9359
15.8395
15.7681
15.7156
15.6774
15.6497
293.164
190.006
136.886
105.184
84.3669
69.7984
59.1565
51.1142
44.8804
39.9575
36.0118
32.8102
30.1849
28.0125
26.207
24.6997
23.4385
22.3832
21.5044
20.7823
20.2067
19.7771
19.5039
19.4104
19.5549
20.1649
22.0243
26.8921
36.429
49.5816
63.2384
73.2869
77.4177
76.9471
75.7616
74.2985
72.8496
71.5534
70.4375
69.4741
68.5738
67.5009
66.1345
64.3604
62.0865
59.2607
55.8858
52.0348
47.8572
43.5654
39.3879
35.5144
32.0692
29.1081
26.6165
24.6071
22.9995
21.7167
20.6857
19.8638
19.209
18.6907
18.2838
17.9671
17.7232
17.5377
17.3985
17.296
17.2212
17.1674
17.1295
17.103
17.0847
17.0717
17.0608
293.24
189.697
135.16
102.425
81.1653
66.4585
55.9029
48.114
42.2315
37.7019
34.1585
31.353
29.1123
27.3174
25.8795
24.7356
23.8398
23.1595
22.6726
22.367
22.2391
22.2945
22.547
23.0181
23.7391
24.7694
26.2532
28.5767
32.2035
37.1541
42.8212
48.3042
53.1478
57.8931
62.6417
67.0773
70.8582
73.7276
75.5208
76.1365
75.4491
73.5063
70.4182
66.3565
61.5388
56.2357
50.7488
45.3655
40.3328
35.837
31.9901
28.8046
26.219
24.2042
22.6814
21.5369
20.6716
20.026
19.5498
19.2041
18.957
18.7846
18.6677
18.5903
18.5402
18.5092
18.4929
18.4877
18.4886
18.4934
18.5002
18.5075
18.5142
18.519
18.5195
293.475
184.592
128.089
95.0992
74.2469
60.4467
50.9401
44.1478
39.1441
35.3669
32.4659
30.2161
28.4761
27.1448
26.1606
25.4843
25.0954
24.9906
25.1837
25.7068
26.6122
27.9735
29.8862
32.464
35.8262
40.0614
44.7302
50.0798
56.4275
64.1065
73.4211
84.4034
95.0512
102.897
108.141
110.402
109.777
106.544
101.153
94.0523
84.7488
74.8576
65.4674
57.0988
49.8928
43.7822
38.6218
34.2674
30.6099
27.5752
25.1082
23.1556
21.6596
20.5389
19.7329
19.1814
18.8289
18.6339
18.5594
18.5727
18.6452
18.7528
18.8754
18.9965
19.102
19.1851
19.2577
19.3199
19.3747
19.4205
19.4583
19.4886
19.5122
19.5289
19.5367
)
;

boundaryField
{
    ibCylinder
    {
        type            immersedBoundaryOmegaWallFunction;
        patchType       immersedBoundary;
        blending        stepwise;
        setDeadValue    true;
        deadValue       500;
        value           nonuniform List<scalar> 0();
    }
    in
    {
        type            fixedValue;
        value           uniform 500;
    }
    out
    {
        type            inletOutlet;
        inletValue      uniform 500;
        value           nonuniform List<scalar> 
25
(
19.555
18.5324
17.068
15.6509
14.5687
13.8916
13.5462
13.4139
13.392
13.4144
13.4459
13.4704
13.4816
13.4776
13.4599
13.4343
13.4161
13.439
13.568
13.9065
14.575
15.6497
17.0608
18.5195
19.5367
)
;
    }
    top
    {
        type            zeroGradient;
    }
    bottom
    {
        type            zeroGradient;
    }
    frontAndBack
    {
        type            empty;
    }
}


// ************************************************************************* //
