/*--------------------------------*- C++ -*----------------------------------*\
| =========                 |                                                 |
| \\      /  F ield         | OpenFOAM: The Open Source CFD Toolbox           |
|  \\    /   O peration     | Version:  2206                                  |
|   \\  /    A nd           | Website:  www.openfoam.com                      |
|    \\/     M anipulation  |                                                 |
\*---------------------------------------------------------------------------*/
FoamFile
{
    version     2.0;
    format      ascii;
    arch        "LSB;label=32;scalar=64";
    class       volScalarField;
    location    "1";
    object      p;
}
// * * * * * * * * * * * * * * * * * * * * * * * * * * * * * * * * * * * * * //

dimensions      [0 2 -2 0 0 0 0];

internalField   nonuniform List<scalar> 
1875
(
8.40427
8.0144
7.76202
7.66194
7.59924
7.54838
7.50894
7.47788
7.45054
7.42374
7.3956
7.36472
7.32965
7.28861
7.23966
7.18034
7.10781
7.01832
6.90695
6.76745
6.59189
6.37044
6.09114
5.7401
5.30247
4.76451
4.11578
3.35259
2.48578
1.55185
0.613401
-0.264641
-1.02557
-1.62267
-2.03336
-2.28386
-2.40603
-2.43331
-2.39416
-2.30553
-2.17496
-2.0157
-1.84421
-1.67125
-1.50331
-1.34316
-1.19244
-1.05209
-0.922173
-0.802088
-0.691169
-0.589226
-0.495943
-0.410831
-0.334075
-0.265344
-0.204738
-0.152294
-0.107882
-0.0709995
-0.0410779
-0.0174681
0.000579983
0.0138413
0.0230691
0.0288482
0.0317396
0.0323349
0.0310712
0.0284149
0.0247296
0.0202164
0.0150714
0.00945373
0.00344313
8.03008
7.8742
7.7443
7.66472
7.60853
7.56151
7.52215
7.48986
7.46101
7.43283
7.40371
7.37218
7.33677
7.29573
7.2471
7.18849
7.11708
7.02913
6.91971
6.78252
6.60949
6.39044
6.11278
5.76145
5.31948
4.76932
4.09863
3.30419
2.39687
1.41671
0.427533
-0.494126
-1.27427
-1.86217
-2.24543
-2.44388
-2.51217
-2.49315
-2.41541
-2.295
-2.14
-1.96431
-1.78524
-1.61345
-1.45133
-1.29811
-1.1544
-1.0207
-0.896733
-0.781613
-0.675033
-0.577148
-0.487282
-0.404435
-0.329158
-0.261696
-0.201948
-0.149969
-0.106021
-0.0694756
-0.0398074
-0.0164175
0.00141152
0.0144056
0.0232662
0.02875
0.0315551
0.0321386
0.0308969
0.0282755
0.0246067
0.0201151
0.0149973
0.00939759
0.00346516
7.85503
7.80435
7.73257
7.6722
7.62213
7.57755
7.53953
7.50645
7.47635
7.4476
7.41867
7.38782
7.35369
7.31472
7.26881
7.21372
7.14681
7.06445
6.96168
6.83205
6.66704
6.4556
6.18355
5.83318
5.38358
4.81217
4.09897
3.23331
2.22502
1.12223
0.00427673
-1.02704
-1.85491
-2.42409
-2.73865
-2.83644
-2.79761
-2.69153
-2.55053
-2.38577
-2.19774
-1.99774
-1.79841
-1.60493
-1.42222
-1.25612
-1.108
-0.975229
-0.855524
-0.746234
-0.645506
-0.552922
-0.467511
-0.388578
-0.316262
-0.251412
-0.193578
-0.143315
-0.100744
-0.065241
-0.0364747
-0.0138605
0.00339678
0.0159167
0.0243918
0.0295734
0.0321162
0.0324877
0.0311183
0.0284144
0.0246817
0.0201504
0.0150165
0.00939328
0.00350774
7.77818
7.75695
7.71116
7.66562
7.62555
7.58898
7.55577
7.52429
7.49561
7.46915
7.44231
7.41351
7.38241
7.34772
7.30786
7.26023
7.2024
7.13086
7.04083
6.92571
6.77623
6.57992
6.31991
5.97424
5.51544
4.91127
4.12949
3.14533
1.96096
0.640633
-0.713585
-1.9084
-2.80011
-3.31624
-3.49646
-3.4326
-3.23149
-3.00279
-2.78286
-2.56521
-2.34249
-2.11336
-1.8795
-1.65141
-1.43759
-1.24589
-1.07612
-0.925946
-0.795659
-0.683705
-0.585995
-0.498998
-0.420314
-0.348553
-0.283028
-0.223954
-0.171249
-0.125487
-0.0865173
-0.0539544
-0.0275089
-0.00709425
0.00839557
0.0196322
0.0270992
0.0315007
0.0334273
0.0333395
0.0316615
0.0287421
0.0248624
0.0202369
0.015051
0.00938958
0.00351596
7.72857
7.71757
7.68961
7.65668
7.62552
7.5959
7.568
7.54162
7.51653
7.49323
7.47014
7.44573
7.42018
7.39269
7.36123
7.32448
7.28013
7.22398
7.15194
7.05809
6.93207
6.75974
6.52111
6.18858
5.72502
5.08236
4.20722
3.03554
1.54529
-0.17239
-1.96313
-3.37568
-4.22522
-4.5956
-4.5511
-4.19881
-3.75795
-3.38327
-3.07942
-2.80809
-2.55471
-2.30761
-2.03795
-1.76549
-1.50501
-1.26795
-1.05718
-0.872426
-0.719231
-0.596152
-0.495954
-0.412027
-0.340361
-0.278201
-0.223272
-0.174405
-0.131138
-0.0935745
-0.0615846
-0.0348855
-0.0130279
0.00376338
0.0160953
0.0250438
0.0308919
0.034073
0.0350802
0.0343452
0.032222
0.0290035
0.0249339
0.020199
0.0149601
0.0092871
0.00342815
7.69545
7.68924
7.67167
7.64849
7.62469
7.60131
7.57868
7.55706
7.53611
7.51631
7.49792
7.48003
7.46193
7.44306
7.42229
7.39882
7.37087
7.33509
7.28745
7.22217
7.12913
6.99307
6.79107
6.48885
6.03649
5.36193
4.37065
2.89802
1.0026
-1.11422
-3.37368
-5.17656
-5.96673
-6.00633
-5.62078
-4.89512
-4.18362
-3.6749
-3.32237
-3.04106
-2.78121
-2.51765
-2.23217
-1.92515
-1.60617
-1.31498
-1.05967
-0.829747
-0.643508
-0.497731
-0.38473
-0.29784
-0.231506
-0.180104
-0.138349
-0.103143
-0.0729895
-0.0471481
-0.0252463
-0.0070834
0.00753161
0.0188893
0.0270752
0.0326551
0.0360491
0.0374716
0.0372282
0.0356236
0.0328998
0.0292871
0.0249719
0.0201
0.0147953
0.00913057
0.00326634
7.67326
7.66943
7.6578
7.64131
7.62333
7.60517
7.58731
7.57018
7.55405
7.53919
7.52596
7.51422
7.50364
7.49412
7.48534
7.47682
7.46752
7.4554
7.4372
7.40761
7.35744
7.27145
7.12487
6.8778
6.46644
5.78718
4.68082
2.99
0.951853
-0.94006
-3.22827
-5.93852
-7.11626
-7.09711
-6.34719
-5.19496
-4.30161
-3.72626
-3.36844
-3.1071
-2.88503
-2.65085
-2.37669
-2.058
-1.71421
-1.37362
-1.06429
-0.798205
-0.576858
-0.402383
-0.271154
-0.175386
-0.111448
-0.0687022
-0.0388254
-0.0174898
-0.00187426
0.0101297
0.0196576
0.0273995
0.0335194
0.0379928
0.0409074
0.042413
0.0426984
0.0418359
0.039975
0.0372591
0.0337997
0.0297092
0.0250904
0.0200423
0.0146413
0.00896658
0.00306412
7.6581
7.65552
7.64748
7.63559
7.62208
7.60813
7.59438
7.58136
7.56957
7.55941
7.55135
7.54575
7.54283
7.54294
7.54636
7.55327
7.56352
7.57636
7.58997
7.60061
7.60103
7.5778
7.50699
7.34657
7.02282
6.4103
5.3196
3.71963
2.01618
-1.16609
0
0
0
0
0
-4.76119
-4.1344
-3.55965
-3.25282
-3.03474
-2.86597
-2.68116
-2.43793
-2.12968
-1.77531
-1.40568
-1.05372
-0.748057
-0.496079
-0.299002
-0.15466
-0.0558834
0.00684819
0.0441211
0.0633067
0.071127
0.0725464
0.0706264
0.0677097
0.0646884
0.0617725
0.0590066
0.0561949
0.053317
0.0502845
0.0469766
0.0433412
0.0393592
0.0350239
0.0303493
0.0253564
0.0200891
0.014561
0.00885563
0.00288974
7.64769
7.64586
7.6401
7.63138
7.62123
7.61062
7.60024
7.59071
7.58267
7.57666
7.57335
7.57345
7.57764
7.58671
7.60156
7.62314
7.65235
7.68981
7.73552
7.78807
7.84335
7.89182
7.91386
7.87081
7.69049
7.24373
6.28182
4.90778
3.14733
0
0
0
0
0
0
0
-3.78035
-3.44802
-3.12382
-2.94448
-2.80196
-2.63958
-2.41437
-2.11857
-1.76437
-1.38399
-1.01296
-0.681239
-0.405324
-0.190862
-0.036535
0.0649654
0.124521
0.152873
0.159829
0.154186
0.142297
0.127991
0.113769
0.100706
0.0892722
0.0795359
0.071281
0.0642096
0.0579872
0.0522984
0.0469184
0.0416829
0.0364678
0.0311875
0.0257882
0.0202684
0.0145857
0.00882948
0.00278253
7.64069
7.63934
7.63505
7.62849
7.62076
7.61267
7.60491
7.59819
7.59321
7.59067
7.59136
7.59627
7.6065
7.62327
7.64801
7.68243
7.72844
7.7881
7.86336
7.95557
8.06442
8.1858
8.30745
8.40089
8.40835
8.16629
7.49985
6.87713
0
0
0
0
0
0
0
0
0
-3.43361
-3.00899
-2.85039
-2.72032
-2.56696
-2.34788
-2.05541
-1.70351
-1.32307
-0.947096
-0.605555
-0.318646
-0.0951076
0.0650421
0.167978
0.224303
0.245687
0.243249
0.226641
0.20327
0.177947
0.153508
0.131668
0.113032
0.0974925
0.0846528
0.0739556
0.0649308
0.0571626
0.0502398
0.0438879
0.0378968
0.0320733
0.0262945
0.0205277
0.0146866
0.00885371
0.00272321
7.63622
7.63516
7.63181
7.62666
7.62056
7.61423
7.60834
7.60366
7.60096
7.60104
7.60479
7.61332
7.62815
7.65082
7.68321
7.72763
7.78686
7.8642
7.96336
8.08829
8.24244
8.42724
8.63865
8.86002
9.02996
8.99134
8.86407
0
0
0
0
0
0
0
0
0
0
0
-2.94975
-2.7538
-2.61667
-2.46681
-2.25359
-1.96665
-1.62223
-1.24619
-0.871876
-0.53034
-0.242501
-0.0180341
0.141825
0.242953
0.295884
0.31211
0.302935
0.278709
0.247405
0.214396
0.182991
0.155038
0.131186
0.111336
0.0950133
0.0815954
0.0704685
0.0610942
0.0529585
0.0456868
0.0390713
0.0328291
0.0267549
0.0207865
0.0148087
0.00889968
0.00270113
7.63374
7.63285
7.63001
7.62565
7.62049
7.6152
7.61044
7.60699
7.60568
7.60737
7.61309
7.62395
7.64158
7.66795
7.70517
7.75594
7.82363
7.91234
8.02703
8.17343
8.35773
8.58555
8.85935
9.17033
9.45692
9.66681
10.0435
0
0
0
0
0
0
0
0
0
0
0
-3.11635
-2.5741
-2.49743
-2.36639
-2.15741
-1.88107
-1.54626
-1.17733
-0.808939
-0.471325
-0.186275
0.0350342
0.192172
0.290927
0.340843
0.353418
0.339367
0.31011
0.274025
0.236476
0.200929
0.169314
0.142329
0.119881
0.101469
0.0864208
0.07404
0.0636929
0.0548183
0.0469574
0.0398556
0.0333081
0.0270651
0.0209779
0.0149048
0.00894046
0.00269803
7.63294
7.6321
7.62943
7.62531
7.62047
7.61553
7.61114
7.6081
7.60724
7.60945
7.61591
7.62762
7.64611
7.67375
7.71263
7.76558
7.83616
7.92879
8.04885
8.2027
8.3975
8.6404
8.93623
9.27782
9.60448
9.93279
10.4573
0
0
0
0
0
0
0
0
0
0
0
-2.94176
-2.53468
-2.45245
-2.32477
-2.11771
-1.84446
-1.51473
-1.14829
-0.782822
-0.447463
-0.164158
0.0555869
0.210788
0.307838
0.356386
0.367899
0.352077
0.320714
0.282957
0.24389
0.206948
0.174104
0.146072
0.122759
0.103646
0.088041
0.0752296
0.0645543
0.0554857
0.0475453
0.0401931
0.0334638
0.0271631
0.0210414
0.0149408
0.00895916
0.00269974
7.63371
7.63283
7.62999
7.62562
7.62047
7.61518
7.61042
7.60696
7.60565
7.60734
7.61306
7.62391
7.64154
7.66792
7.70514
7.75591
7.8236
7.91232
8.02701
8.17341
8.35771
8.58553
8.85934
9.17031
9.45687
9.66675
10.0435
0
0
0
0
0
0
0
0
0
0
0
-3.11653
-2.57424
-2.49756
-2.36652
-2.15753
-1.88121
-1.54639
-1.17744
-0.809022
-0.471379
-0.186302
0.0350297
0.192185
0.290953
0.340879
0.353456
0.339404
0.310149
0.274063
0.236512
0.200962
0.169346
0.142358
0.119908
0.101493
0.0864424
0.0740593
0.0637106
0.0548347
0.0469726
0.0398694
0.03332
0.0270747
0.0209853
0.0149099
0.00894336
0.00269889
7.63618
7.63512
7.63177
7.62661
7.62051
7.61418
7.60829
7.60361
7.60091
7.60098
7.60472
7.61326
7.62808
7.65075
7.68314
7.72757
7.78681
7.86415
7.96332
8.08824
8.2424
8.4272
8.63861
8.85997
9.0299
8.99124
8.86397
0
0
0
0
0
0
0
0
0
0
0
-2.95006
-2.75407
-2.61692
-2.46707
-2.25385
-1.96691
-1.62247
-1.24639
-0.872018
-0.530427
-0.242539
-0.0180301
0.141861
0.243013
0.295958
0.312193
0.303018
0.278791
0.247483
0.214469
0.18306
0.155102
0.131246
0.111391
0.0950627
0.0816393
0.070508
0.06113
0.0529916
0.0457174
0.0390988
0.0328528
0.0267742
0.0208013
0.0148189
0.00890551
0.00270287
7.64063
7.63927
7.63499
7.62843
7.62069
7.6126
7.60484
7.59811
7.59313
7.59059
7.59126
7.59617
7.6064
7.62317
7.64791
7.68234
7.72836
7.78802
7.86328
7.9555
8.06436
8.18574
8.3074
8.40083
8.40827
8.1662
7.49977
6.87712
0
0
0
0
0
0
0
0
0
-3.43401
-3.00932
-2.85074
-2.72067
-2.56732
-2.34824
-2.05575
-1.70381
-1.32331
-0.947267
-0.605654
-0.31868
-0.0950877
0.0651043
0.16807
0.224414
0.245807
0.243371
0.226762
0.203387
0.178057
0.153611
0.131765
0.113122
0.0975758
0.0847279
0.0740228
0.064991
0.057217
0.0502901
0.0439341
0.0379382
0.032109
0.0263237
0.0205501
0.0147021
0.00886258
0.00272588
7.64761
7.64578
7.64002
7.6313
7.62114
7.61053
7.60014
7.59061
7.58256
7.57654
7.57322
7.57332
7.57751
7.58657
7.60143
7.62302
7.65223
7.6897
7.73541
7.78797
7.84325
7.89173
7.91378
7.87071
7.69041
7.2436
6.28178
4.90799
3.14719
0
0
0
0
0
0
0
-3.78036
-3.44822
-3.12417
-2.94488
-2.80239
-2.64001
-2.41478
-2.11895
-1.7647
-1.38424
-1.01312
-0.681312
-0.405331
-0.190814
-0.0364426
0.0650892
0.124665
0.153026
0.159987
0.154348
0.142452
0.128137
0.113906
0.100835
0.089394
0.0796483
0.0713824
0.0643007
0.0580688
0.0523724
0.0469863
0.0417449
0.0365233
0.0312354
0.0258275
0.0202985
0.0146067
0.00884148
0.00278618
7.65799
7.65542
7.64737
7.63548
7.62197
7.60802
7.59426
7.58124
7.56944
7.55927
7.5512
7.54559
7.54266
7.54277
7.54619
7.5531
7.56337
7.57622
7.58983
7.60048
7.6009
7.57768
7.50687
7.34647
7.02269
6.41025
5.31961
3.7197
2.01621
-1.16705
0
0
0
0
0
-4.76111
-4.13445
-3.55986
-3.2532
-3.0352
-2.86647
-2.68164
-2.43836
-2.13006
-1.7756
-1.40587
-1.05381
-0.748071
-0.496035
-0.298917
-0.154535
-0.055725
0.0070294
0.0443033
0.0634998
0.0713292
0.0727356
0.0708061
0.0678813
0.0648512
0.0619251
0.0591484
0.0563229
0.0534326
0.0503885
0.0470708
0.043427
0.0394372
0.0350935
0.0304094
0.0254058
0.0201271
0.0145875
0.00887081
0.00289442
7.67314
7.66931
7.65768
7.64119
7.6232
7.60504
7.58717
7.57003
7.55389
7.53902
7.52578
7.51403
7.50344
7.49391
7.48513
7.47662
7.46733
7.45522
7.43702
7.40744
7.35727
7.27129
7.12472
6.87765
6.46633
5.78707
4.68086
2.99009
0.951904
-0.940286
-3.22906
-5.93852
-7.11627
-7.09678
-6.34727
-5.19513
-4.30178
-3.72658
-3.36895
-3.10767
-2.88557
-2.65134
-2.37708
-2.0583
-1.71441
-1.37373
-1.06431
-0.79815
-0.57674
-0.40225
-0.271008
-0.175199
-0.111242
-0.0684836
-0.0385964
-0.0172628
-0.00165302
0.0103438
0.019863
0.0275938
0.033701
0.0381598
0.0410611
0.0425529
0.042825
0.0419502
0.0400784
0.0373526
0.0338829
0.0297811
0.0251496
0.020088
0.0146733
0.00898499
0.0030699
7.69532
7.6891
7.67153
7.64835
7.62454
7.60115
7.57852
7.55689
7.53593
7.51612
7.49771
7.47981
7.4617
7.44283
7.42205
7.39858
7.37063
7.33485
7.28722
7.22195
7.12892
6.99287
6.79088
6.48868
6.03633
5.36181
4.37058
2.89796
1.00245
-1.1148
-3.3743
-5.17681
-5.96686
-6.00654
-5.6212
-4.89561
-4.18407
-3.6754
-3.32297
-3.04164
-2.78169
-2.51804
-2.23243
-1.92528
-1.60621
-1.31503
-1.05967
-0.829649
-0.643366
-0.497565
-0.384539
-0.297623
-0.231272
-0.179858
-0.138095
-0.102887
-0.0727356
-0.0469007
-0.0250092
-0.00685947
0.00774085
0.0190831
0.0272534
0.0328182
0.0361971
0.037605
0.0373483
0.0357315
0.0329958
0.0293701
0.0250404
0.020153
0.0148325
0.00915222
0.00327324
7.72842
7.71742
7.68946
7.65653
7.62536
7.59573
7.56783
7.54143
7.51633
7.49301
7.46992
7.44549
7.41993
7.39243
7.36096
7.3242
7.27985
7.2237
7.15167
7.05783
6.93182
6.75949
6.52088
6.18836
5.72482
5.08219
4.20716
3.03558
1.54535
-0.172766
-1.96356
-3.37597
-4.22555
-4.59589
-4.55126
-4.19903
-3.75819
-3.38349
-3.07967
-2.80837
-2.55506
-2.30794
-2.03812
-1.76556
-1.50503
-1.26793
-1.0571
-0.872287
-0.71906
-0.59596
-0.495739
-0.411789
-0.340104
-0.277931
-0.222994
-0.174122
-0.130857
-0.0932998
-0.0613209
-0.0346357
-0.0127945
0.00398001
0.0162951
0.0252271
0.0310586
0.0342235
0.0352153
0.0344662
0.0323293
0.0290962
0.0250106
0.0202586
0.0150023
0.00931185
0.00343618
7.77803
7.75679
7.711
7.66545
7.62538
7.5888
7.55558
7.52409
7.49539
7.46892
7.44206
7.41325
7.38214
7.34744
7.30756
7.25992
7.20209
7.13055
7.04052
6.9254
6.77594
6.57964
6.31964
5.97398
5.5152
4.91105
4.12933
3.14528
1.96097
0.640652
-0.713635
-1.90842
-2.80003
-3.31612
-3.49632
-3.43245
-3.23135
-3.00274
-2.78292
-2.56534
-2.34264
-2.1135
-1.87959
-1.65146
-1.43761
-1.24585
-1.07603
-0.925803
-0.795482
-0.683502
-0.585768
-0.498747
-0.420044
-0.348268
-0.282732
-0.223653
-0.170948
-0.125193
-0.0862334
-0.0536852
-0.0272568
-0.00686007
0.00861266
0.0198317
0.027281
0.031665
0.0335748
0.0334715
0.031778
0.0288425
0.0249455
0.0203019
0.0150975
0.00941708
0.00352501
7.85487
7.80419
7.73241
7.67202
7.62195
7.57736
7.53933
7.50624
7.47612
7.44736
7.41842
7.38755
7.3534
7.31441
7.26849
7.21339
7.14647
7.06411
6.96135
6.83172
6.66672
6.45529
6.18325
5.83289
5.38331
4.81191
4.09874
3.2331
2.22483
1.12209
0.00415157
-1.02715
-1.85487
-2.42406
-2.7387
-2.83645
-2.79755
-2.69152
-2.55061
-2.38584
-2.19782
-1.99785
-1.79848
-1.60496
-1.4222
-1.25607
-1.10789
-0.97509
-0.855351
-0.746031
-0.645274
-0.552665
-0.467231
-0.388281
-0.315954
-0.251099
-0.193265
-0.143008
-0.100447
-0.0649594
-0.0362104
-0.0136141
0.00362539
0.0161274
0.0245841
0.0297472
0.0322725
0.0326278
0.0312417
0.0285202
0.0247693
0.0202193
0.015066
0.00942287
0.00351757
8.02992
7.87403
7.74413
7.66454
7.60834
7.56132
7.52194
7.48964
7.46078
7.43258
7.40345
7.3719
7.33647
7.29541
7.24677
7.18815
7.11673
7.02877
6.91935
6.78217
6.60915
6.39011
6.11246
5.76116
5.3192
4.76905
4.09838
3.30394
2.39661
1.41643
0.427233
-0.494382
-1.27445
-1.8623
-2.24559
-2.44401
-2.51228
-2.49325
-2.41552
-2.29508
-2.14005
-1.96436
-1.78528
-1.61346
-1.4513
-1.29804
-1.15428
-1.02055
-0.89655
-0.7814
-0.674793
-0.576884
-0.486997
-0.404133
-0.328845
-0.261378
-0.20163
-0.149657
-0.105719
-0.0691876
-0.0395362
-0.0161641
0.00164679
0.0146228
0.0234647
0.0289295
0.0317169
0.0322833
0.0310245
0.0283849
0.0246969
0.0201862
0.0150487
0.00942832
0.00347542
8.4041
8.01423
7.76185
7.66176
7.59905
7.54818
7.50873
7.47766
7.45031
7.42349
7.39533
7.36444
7.32935
7.28829
7.23933
7.18
7.10746
7.01796
6.90659
6.7671
6.59155
6.37011
6.09082
5.7398
5.30219
4.76425
4.11553
3.35234
2.48551
1.55155
0.613071
-0.264941
-1.02579
-1.62283
-2.03351
-2.28402
-2.40619
-2.43346
-2.3943
-2.30564
-2.17504
-2.01575
-1.84423
-1.67124
-1.50327
-1.34308
-1.19232
-1.05193
-0.921991
-0.801876
-0.690928
-0.58896
-0.495655
-0.410526
-0.333758
-0.265024
-0.204418
-0.151979
-0.107577
-0.0707084
-0.0408031
-0.0172106
0.000819083
0.014062
0.0232704
0.0290319
0.0319036
0.0324824
0.0312011
0.0285258
0.0248209
0.0202889
0.0151233
0.00948497
0.00345355
)
;

boundaryField
{
    ibCylinder
    {
        type            zeroGradientIb;
        patchType       immersedBoundary;
        setDeadValue    true;
        deadValue       0;
        value           nonuniform List<scalar> 0();
    }
    in
    {
        type            zeroGradient;
    }
    out
    {
        type            fixedValue;
        value           uniform 0;
    }
    top
    {
        type            zeroGradient;
    }
    bottom
    {
        type            zeroGradient;
    }
    frontAndBack
    {
        type            empty;
    }
}


// ************************************************************************* //
