/*--------------------------------*- C++ -*----------------------------------*\
| =========                 |                                                 |
| \\      /  F ield         | OpenFOAM: The Open Source CFD Toolbox           |
|  \\    /   O peration     | Version:  2206                                  |
|   \\  /    A nd           | Website:  www.openfoam.com                      |
|    \\/     M anipulation  |                                                 |
\*---------------------------------------------------------------------------*/
FoamFile
{
    version     2.0;
    format      ascii;
    arch        "LSB;label=32;scalar=64";
    class       surfaceScalarField;
    location    "1";
    object      phi;
}
// * * * * * * * * * * * * * * * * * * * * * * * * * * * * * * * * * * * * * //

dimensions      [0 3 -1 0 0 0 0];

oriented        oriented;

internalField   nonuniform List<scalar> 
3650
(
0.00275277
0.000447228
0.0022492
0.000503569
0.00182409
0.000425116
0.00149691
0.000327175
0.00125822
0.000238696
0.00109172
0.000166495
0.000977276
0.000114446
0.00090007
7.72057e-05
0.000849234
5.0836e-05
0.000817662
3.15692e-05
0.000801562
1.61003e-05
0.000798913
2.64451e-06
0.000808719
-9.80471e-06
0.000830982
-2.22668e-05
0.000867704
-3.67206e-05
0.0009212
-5.34998e-05
0.000994736
-7.35345e-05
0.00109252
-9.77876e-05
0.00121973
-0.000127207
0.00138245
-0.000162726
0.00158755
-0.000205104
0.00184221
-0.000254667
0.00215313
-0.000310916
0.00252504
-0.000371927
0.00295851
-0.000433463
0.00344961
-0.000491108
0.00398438
-0.000534776
0.00453398
-0.000549606
0.00505667
-0.000522689
0.00550019
-0.000443519
0.00580801
-0.000307829
0.00592976
-0.00012175
0.00585269
7.70666e-05
0.00558455
0.000268144
0.00516141
0.000423132
0.00462278
0.000538634
0.00401946
0.000603311
0.00339807
0.000621393
0.00279568
0.000602385
0.0022474
0.000548285
0.00177318
0.000474214
0.00137232
0.000400853
0.00103854
0.000333782
0.000763173
0.000275365
0.000538806
0.000224366
0.000360647
0.000178156
0.000224205
0.000136441
0.00012415
0.000100052
5.5436e-05
6.87133e-05
1.36483e-05
4.17864e-05
-5.18438e-06
1.88318e-05
-5.58929e-06
4.04288e-07
8.28153e-06
-1.38718e-05
3.47256e-05
-2.64446e-05
6.979e-05
-3.50656e-05
0.000111388
-4.15982e-05
0.000156349
-4.49619e-05
0.000202609
-4.62605e-05
0.000247949
-4.53411e-05
0.000290954
-4.30051e-05
0.000330498
-3.95448e-05
0.000365869
-3.53708e-05
0.000396735
-3.08665e-05
0.000423131
-2.63969e-05
0.000445384
-2.22529e-05
0.000463749
-1.83649e-05
0.000478595
-1.48466e-05
0.000490448
-1.18528e-05
0.000499788
-9.3398e-06
0.00050714
-7.35215e-06
0.000512851
-5.71095e-06
0.000517242
-4.39116e-06
0.000520599
-3.35677e-06
0.000523146
-2.54691e-06
-2.09042e-06
0.00336662
0.000280605
0.00335602
0.00051417
0.00324281
0.000538329
0.00307257
0.000497415
0.00287418
0.000437083
0.00267793
0.000362746
0.00250492
0.000287454
0.00236195
0.000220184
0.00224876
0.000164024
0.00216321
0.000117109
0.00210359
7.57207e-05
0.00206817
3.807e-05
0.00205593
2.42949e-06
0.00206693
-3.32641e-05
0.00210303
-7.28241e-05
0.00216706
-0.000117532
0.00226302
-0.00016949
0.00239613
-0.0002309
0.0025728
-0.000303885
0.00280056
-0.000390487
0.00308783
-0.000492372
0.00344347
-0.000610308
0.00387602
-0.00074347
0.00439243
-0.000888347
0.00499647
-0.0010375
0.0056839
-0.00117855
0.00644157
-0.00129245
0.0072452
-0.00135324
0.00805478
-0.00133227
0.00881558
-0.00120432
0.00946148
-0.000953727
0.0099302
-0.000590477
0.0101743
-0.000166997
0.0101921
0.000250272
0.0100043
0.000610951
0.00964534
0.000897606
0.00914608
0.00110258
0.00853773
0.00122974
0.00784468
0.00129544
0.00707877
0.00131419
0.00626072
0.00129226
0.00542421
0.00123736
0.00460197
0.00115602
0.00382974
0.00104759
0.00313772
0.000916385
0.00254195
0.000773923
0.00204603
0.000632359
0.00164738
0.000498704
0.00133892
0.000377176
0.00110954
0.00027116
0.000947923
0.00018045
0.00084425
0.000104077
0.000789775
4.0602e-05
0.00077556
-1.22305e-05
0.000789984
-4.94896e-05
0.000827151
-7.87658e-05
0.000878903
-9.67149e-05
0.000939441
-0.000106799
0.0010038
-0.000109702
0.00106849
-0.000107696
0.00113028
-0.000101337
0.00118728
-9.23715e-05
0.00123842
-8.20001e-05
0.0012831
-7.10817e-05
0.00132119
-6.03457e-05
0.00135311
-5.02787e-05
0.00137942
-4.11552e-05
0.0014008
-3.324e-05
0.00141802
-2.6559e-05
0.00143168
-2.1013e-05
0.00144241
-1.64373e-05
0.00145075
-1.27281e-05
0.00145715
-9.76116e-06
0.00146206
-7.46124e-06
-5.53867e-06
0.00332712
0.000153484
0.00346517
0.000376117
0.00353672
0.000466786
0.00355107
0.000483058
0.00352108
0.00046708
0.0034585
0.000425329
0.00337573
0.000370217
0.0032831
0.000312812
0.00319257
0.000254558
0.00311308
0.0001966
0.00304955
0.000139252
0.00300412
8.34945e-05
0.00297834
2.82049e-05
0.00297455
-2.94686e-05
0.00299532
-9.35937e-05
0.00304392
-0.00016614
0.00312443
-0.000249995
0.00324195
-0.00034842
0.00340266
-0.000464594
0.00361396
-0.000601792
0.00388449
-0.000762899
0.00422389
-0.000949711
0.00464256
-0.00116215
0.00515069
-0.00139649
0.00575667
-0.00164349
0.00646393
-0.00188581
0.00726792
-0.00209645
0.00815125
-0.00223657
0.0090733
-0.00225432
0.00997316
-0.00210418
0.010766
-0.00174655
0.0113598
-0.00118435
0.0117185
-0.000525652
0.0118492
0.000119608
0.011778
0.000682101
0.0115574
0.00111823
0.0112306
0.00142932
0.0108233
0.00163707
0.0103451
0.00177368
0.00979147
0.00186779
0.00915912
0.00192461
0.00845342
0.00194306
0.0076905
0.00191894
0.00688908
0.00184901
0.00607274
0.00173273
0.00527201
0.00157464
0.00452123
0.00138315
0.00385041
0.00116952
0.00327966
0.000947923
0.0028154
0.000735424
0.00245304
0.000542809
0.0021827
0.000374414
0.0019919
0.000231404
0.00186581
0.000113858
0.00179471
2.16097e-05
0.00176527
-4.93267e-05
0.00176702
-9.84658e-05
0.00179063
-0.000130403
0.00182864
-0.000147722
0.00187435
-0.000153403
0.0019229
-0.000149888
0.00197163
-0.000141103
0.00201811
-0.00012848
0.00206045
-0.000113415
0.00209783
-9.77337e-05
0.00213013
-8.25786e-05
0.00215755
-6.85692e-05
0.00218039
-5.60829e-05
0.00219913
-4.52995e-05
0.00221428
-3.61668e-05
0.00222639
-2.85475e-05
0.00223597
-2.23064e-05
0.00224343
-1.72186e-05
0.00224928
-1.33162e-05
-9.63879e-06
0.00326357
8.99193e-05
0.00339212
0.000247564
0.00351066
0.000348249
0.00359656
0.00039716
0.00365351
0.000410125
0.00368305
0.000395788
0.00368749
0.000365782
0.00367304
0.000327261
0.00364761
0.000279985
0.00361833
0.000225877
0.00358937
0.000168213
0.00356466
0.000108207
0.00354901
4.38564e-05
0.00354635
-2.68119e-05
0.00356111
-0.000108354
0.00359678
-0.000201807
0.00365726
-0.000310481
0.00374755
-0.000438701
0.00387429
-0.000591339
0.00404532
-0.000772821
0.00427016
-0.00098774
0.0045605
-0.00124006
0.00493029
-0.00153195
0.0053958
-0.001862
0.00597462
-0.00222231
0.00668293
-0.00259413
0.00753423
-0.00294775
0.00852434
-0.00322668
0.00959156
-0.00332155
0.0106202
-0.00313278
0.0114601
-0.00258652
0.0120362
-0.00176039
0.0123487
-0.000838178
0.0124097
5.85738e-05
0.0122757
0.000816131
0.0120387
0.00135525
0.0117518
0.00171619
0.0114305
0.00195843
0.011073
0.00213115
0.0106792
0.00226159
0.010243
0.00236079
0.00975227
0.0024338
0.00920485
0.00246636
0.00860225
0.00245162
0.00795542
0.00237956
0.00727511
0.00225495
0.00657834
0.00207991
0.00589043
0.00185742
0.00523808
0.00160028
0.00464587
0.00132763
0.00413215
0.00105653
0.00370563
0.000800935
0.00336613
0.000570904
0.00310695
0.000373037
0.00291848
0.00021008
0.00278804
8.11136e-05
0.00270528
-1.57083e-05
0.00265917
-8.42916e-05
0.00264006
-0.000128617
0.00263942
-0.000152761
0.00265148
-0.000161948
0.00267071
-0.000160331
0.00269383
-0.000151604
0.00271855
-0.000138132
0.00274289
-0.00012208
0.00276567
-0.000105355
0.00278621
-8.91147e-05
0.00280421
-7.40756e-05
0.00281961
-6.07007e-05
0.00283254
-4.90976e-05
0.00284322
-3.92267e-05
0.00285193
-3.10174e-05
0.00285889
-2.41831e-05
0.00286453
-1.89558e-05
-1.37016e-05
0.00323363
5.62868e-05
0.00331659
0.000164603
0.00341807
0.000246772
0.00351669
0.000298543
0.0036022
0.00032462
0.00366886
0.000329119
0.00371738
0.000317266
0.00375137
0.000293269
0.00377427
0.000257091
0.00378821
0.000211933
0.00379504
0.000161383
0.00379892
0.000104325
0.00380384
3.89392e-05
0.0038134
-3.63734e-05
0.0038303
-0.000125251
0.0038584
-0.000229904
0.00390145
-0.000353535
0.00396463
-0.000501883
0.00405464
-0.000681342
0.00417923
-0.000897416
0.00434905
-0.00115756
0.00457852
-0.00146953
0.00488659
-0.00184003
0.00529777
-0.00227317
0.00584274
-0.0027673
0.00655873
-0.00331011
0.00748993
-0.00387895
0.00861455
-0.00435131
0.00975327
-0.00446027
0.0107308
-0.00411031
0.0114151
-0.00327087
0.0117332
-0.00207841
0.0117465
-0.000851527
0.0115868
0.000218324
0.0113119
0.00109103
0.011034
0.00163313
0.0108186
0.00193155
0.0106386
0.00213843
0.0104565
0.00231327
0.0102467
0.00247142
0.0099986
0.00260887
0.00971114
0.00272126
0.00937692
0.00280058
0.00896798
0.00286056
0.00850873
0.00283881
0.00801424
0.00274944
0.00749387
0.00260028
0.00696336
0.00238794
0.00643284
0.00213079
0.00591313
0.00184735
0.00541981
0.00154984
0.00496986
0.00125088
0.00457491
0.00096586
0.00424038
0.000707566
0.00396686
0.000483593
0.00375068
0.000297294
0.00358572
0.000149257
0.00346418
3.72425e-05
0.00337827
-4.27079e-05
0.00332086
-9.53512e-05
0.00328472
-0.000125807
0.00326332
-0.000138925
0.00325304
-0.000141334
0.00325058
-0.000135665
0.00325322
-0.000124724
0.00325914
-0.000111273
0.00326681
-9.67844e-05
0.00327511
-8.23773e-05
0.0032833
-6.88849e-05
0.00329093
-5.67359e-05
0.00329779
-4.60839e-05
0.00330379
-3.70119e-05
0.00330886
-2.92592e-05
0.00331317
-2.32696e-05
-1.69445e-05
0.00321906
3.72252e-05
0.00327128
0.000112388
0.00334361
0.000174435
0.00342402
0.00021814
0.00350428
0.000244361
0.00357835
0.000255047
0.00364333
0.000252284
0.0036987
0.000237898
0.00374326
0.000212533
0.00377799
0.000177203
0.00380555
0.000133823
0.00382801
8.18688e-05
0.00384724
1.97106e-05
0.00386533
-5.4466e-05
0.00388367
-0.000143588
0.00390477
-0.000251004
0.00393228
-0.000381039
0.00396996
-0.000539561
0.00402266
-0.000734044
0.00409821
-0.000972965
0.00420745
-0.00126681
0.00436594
-0.00162802
0.00459636
-0.00207045
0.00493159
-0.00260842
0.00541846
-0.00325416
0.00611996
-0.00401162
0.00709449
-0.00485348
0.00813749
-0.00539431
0.00894047
-0.00526324
0.00937269
-0.00454252
0.00923456
-0.00313274
0.0085526
-0.00139645
0.00786087
-0.000159793
0.0074472
0.000631991
0.00722576
0.00131247
0.00722058
0.00163831
0.00740995
0.00174218
0.00768803
0.00186036
0.00799265
0.00200865
0.00826702
0.00219705
0.008456
0.0024199
0.00852463
0.00265263
0.00848531
0.00283989
0.00834789
0.00299798
0.00812272
0.00306398
0.00784229
0.00302987
0.00751776
0.00292481
0.00715478
0.00275091
0.00676977
0.00251581
0.00638205
0.00223506
0.00600355
0.00192835
0.00564124
0.0016132
0.00530181
0.00130528
0.00499045
0.00101893
0.00471267
0.000761375
0.00447227
0.000537693
0.0042702
0.000351323
0.00410466
0.000202787
0.00397203
8.992e-05
0.00386828
8.39873e-06
0.00378927
-4.67944e-05
0.00373091
-8.05674e-05
0.00368838
-9.87998e-05
0.00365828
-0.000105566
0.00363784
-0.000104284
0.00362464
-9.80738e-05
0.00361679
-8.89387e-05
0.00361283
-7.8414e-05
0.00361154
-6.75923e-05
0.00361197
-5.71716e-05
0.00361342
-4.75322e-05
0.00361538
-3.89761e-05
0.0036175
-3.13743e-05
0.00361957
-2.53452e-05
-1.86901e-05
0.00321175
2.5477e-05
0.00324612
7.80153e-05
0.00329687
0.000123686
0.00335712
0.000157892
0.00342141
0.00018007
0.00348559
0.000190871
0.00354678
0.000191091
0.00360311
0.000181569
0.00365288
0.00016276
0.00369512
0.00013497
0.00373041
9.85364e-05
0.00375933
5.29441e-05
0.00378234
-3.2955e-06
0.00380011
-7.22341e-05
0.00381325
-0.00015673
0.00382272
-0.000260466
0.00383001
-0.000388336
0.00383733
-0.000546879
0.00384792
-0.000744633
0.00386736
-0.000992404
0.00390468
-0.00130413
0.00397444
-0.00169778
0.00410013
-0.00219614
0.00431931
-0.00282758
0.00468986
-0.00362474
0.00528285
-0.00460461
0.00606605
-0.00563668
0.00648226
-0.00581052
0.00567112
-0.00445209
0.00299991
-0.00114811
0.000916277
-3.17517e-18
5.97524e-06
-3.88025e-18
-0.000161688
-4.14148e-18
-3.05962e-05
-4.57756e-18
0.000196447
-5.62553e-18
0.000782485
0.000388002
0.00168681
0.000837851
0.00268096
0.000866212
0.0036408
0.0010488
0.00452908
0.00130877
0.0052965
0.00165247
0.0059024
0.00204672
0.00632882
0.00241348
0.00660465
0.00272215
0.0067507
0.00291793
0.00678406
0.0029965
0.00672827
0.00298061
0.00660855
0.00287063
0.00643032
0.00269403
0.00621703
0.00244836
0.00598623
0.00215915
0.00574345
0.00185598
0.00549894
0.0015498
0.00526312
0.00125474
0.0050425
0.000981996
0.00483966
0.000740531
0.00465627
0.000534717
0.00449406
0.000365001
0.00435346
0.000230512
0.00423421
0.000127657
0.00413527
5.21369e-05
0.00405519
-4.80566e-07
0.00399166
-3.52719e-05
0.00394218
-5.60908e-05
0.00390453
-6.66317e-05
0.00387642
-6.99669e-05
0.00385594
-6.84547e-05
0.00384142
-6.38934e-05
0.00383145
-5.76223e-05
0.00382487
-5.05938e-05
0.00382076
-4.34168e-05
0.00381837
-3.65912e-05
0.00381715
-3.01541e-05
0.00381667
-2.48607e-05
-1.86842e-05
0.00320789
1.75889e-05
0.00323167
5.4232e-05
0.00326815
8.721e-05
0.00331311
0.000112928
0.00336294
0.000130245
0.00341461
0.000139204
0.00346564
0.000140053
0.00351417
0.000133043
0.00355861
0.000118324
0.00359764
9.59438e-05
0.00363046
6.57091e-05
0.00365649
2.69188e-05
0.00367504
-2.18395e-05
0.0036855
-8.2692e-05
0.0036872
-0.000158434
0.00367955
-0.000252816
0.00366211
-0.000370889
0.0036347
-0.000519474
0.00359781
-0.000707743
0.00355342
-0.000948011
0.00350634
-0.00125705
0.00346631
-0.00165774
0.00345167
-0.0021815
0.0034949
-0.00287082
0.00364552
-0.00377535
0.00391456
-0.00487364
0.00386873
-0.00559084
0.00223881
-0.00418059
0.000122452
-0.00021798
-1.38902e-18
-8.73426e-19
-3.34406e-19
-3.10404e-19
-4.76354e-20
-8.3414e-20
-4.4176e-20
-3.25228e-20
-8.03744e-20
-1.16951e-21
3.31423e-19
2.39774e-20
-0.000723475
-1.75037e-18
-0.00194915
3.15992e-05
-0.00121825
0.000135309
-0.000260335
9.0889e-05
0.000756955
0.00029148
0.00174896
0.000660466
0.00265247
0.00114321
0.00343151
0.00163444
0.00406677
0.0020869
0.00455019
0.00243451
0.00490104
0.00264565
0.00514906
0.00273259
0.00531272
0.00270697
0.00540691
0.00259984
0.00543591
0.00241936
0.00540909
0.00218597
0.00534258
0.0019225
0.00524492
0.00164745
0.00512645
0.00137321
0.00499772
0.00111072
0.00486625
0.000872008
0.00473655
0.000664419
0.00461291
0.000488634
0.00449897
0.000344452
0.00439644
0.000230193
0.00430611
0.000142459
0.00422841
7.7222e-05
0.00416284
3.02956e-05
0.0041088
-2.05156e-06
0.00406528
-2.31076e-05
0.00403088
-3.55631e-05
0.00400417
-4.17473e-05
0.0039838
-4.35203e-05
0.00396852
-4.23463e-05
0.00395726
-3.93321e-05
0.0039491
-3.52629e-05
0.0039433
-3.07875e-05
0.00393926
-2.61161e-05
0.00393647
-2.20669e-05
-1.69851e-05
0.00320565
1.19426e-05
0.00322288
3.69998e-05
0.00325
6.00894e-05
0.00328432
7.86064e-05
0.00332319
9.1375e-05
0.00336429
9.81075e-05
0.00340555
9.87916e-05
0.00344518
9.34168e-05
0.00348156
8.19453e-05
0.00351324
6.4264e-05
0.00353888
4.00761e-05
0.00355717
8.6243e-06
0.00356671
-3.13762e-05
0.00356584
-8.18203e-05
0.00355266
-0.000145252
0.00352499
-0.000225142
0.00348032
-0.00032622
0.00341584
-0.000454987
0.00332852
-0.000620428
0.00321557
-0.000835051
0.00307498
-0.00111645
0.00290713
-0.0014899
0.00271752
-0.00199187
0.00252088
-0.00267417
0.00233156
-0.00358603
0.00198562
-0.00452769
0.000620478
-0.00422568
-0.000262937
-0.00063468
5.86877e-19
1.05867e-18
1.15934e-19
-1.72632e-19
4.80767e-20
-4.94902e-20
1.61056e-20
-1.62529e-20
2.34702e-20
6.17479e-21
8.82639e-22
-6.65508e-21
-2.252e-19
-9.05039e-21
-5.55959e-19
-8.91715e-21
-0.000579089
-1.3564e-18
-0.00292196
-5.45405e-05
-0.0023998
-0.000431263
-0.00170321
-0.000405114
-0.000921771
-0.000120974
-0.000141848
0.000363291
0.00061501
0.000877578
0.0013424
0.00135951
0.00201231
0.0017646
0.00259892
0.00205904
0.00309623
0.00223527
0.00350982
0.00229339
0.00385188
0.00225779
0.00412277
0.00214846
0.0043253
0.00198344
0.00446705
0.00178075
0.00455663
0.00155787
0.00460164
0.00132819
0.00460909
0.00110328
0.00458833
0.000892771
0.00454854
0.00070421
0.0044963
0.000540869
0.00443779
0.000402965
0.00437769
0.000290293
0.00431941
0.000200739
0.00426529
0.000131343
0.00421663
7.89502e-05
0.00417404
4.054e-05
0.00413761
1.33213e-05
0.00410711
-5.05673e-06
0.00408203
-1.66665e-05
0.00406173
-2.32263e-05
0.00404557
-2.61799e-05
0.00403286
-2.66247e-05
0.004023
-2.54027e-05
0.00401542
-2.32058e-05
0.00400967
-2.03748e-05
0.00400527
-1.76582e-05
-1.39419e-05
0.00320426
7.68696e-06
0.00321734
2.39147e-05
0.00323832
3.91098e-05
0.0032654
5.15282e-05
0.00329655
6.02234e-05
0.00332982
6.48373e-05
0.00336338
6.5242e-05
0.00339547
6.13231e-05
0.00342445
5.29676e-05
0.00344872
3.99949e-05
0.00346664
2.2162e-05
0.0034764
-1.13376e-06
0.00347601
-3.09906e-05
0.00346309
-6.88926e-05
0.00343471
-0.000116871
0.00338731
-0.000177742
0.00331647
-0.000255383
0.00321669
-0.000355203
0.00308109
-0.000484818
0.00290114
-0.000655092
0.00266648
-0.000881788
0.00236483
-0.00118824
0.00198228
-0.00160932
0.0015021
-0.00219398
0.000868281
-0.0029522
-0.000158269
-0.00350112
-0.000995439
-0.00187521
2.07644e-18
1.77351e-18
-1.46336e-19
2.82255e-19
2.04845e-19
3.10793e-19
6.94862e-22
5.23576e-20
1.30316e-20
1.23774e-20
-3.58426e-21
-4.43464e-21
-1.65391e-23
-1.61992e-22
1.43237e-23
3.47584e-27
-1.98325e-19
2.70342e-27
-3.15759e-19
-8.32611e-21
-0.00192275
-1.47888e-18
-0.00319548
-0.000433727
-0.00295012
-0.000650475
-0.0025687
-0.000502394
-0.00209867
-0.000106737
-0.00156079
0.000339691
-0.000965013
0.000763732
-0.00033232
0.0011319
0.0003111
0.00141562
0.000939963
0.00160641
0.00152956
0.00170379
0.00206763
0.00171972
0.00254508
0.00167101
0.00295577
0.00157275
0.00329822
0.00143829
0.00357593
0.00128016
0.0037935
0.00111062
0.00395642
0.000940358
0.00407177
0.00077742
0.00414819
0.000627785
0.004194
0.00049506
0.0042163
0.000380669
0.00422164
0.000284952
0.00421548
0.000206901
0.00420206
0.000144756
0.0041846
9.64113e-05
0.00416542
5.97179e-05
0.00414611
3.26353e-05
0.00412766
1.3393e-05
0.00411069
3.06941e-07
0.0040955
-8.03932e-06
0.0040823
-1.29777e-05
0.00407106
-1.53878e-05
0.00406167
-1.6013e-05
0.00405393
-1.54629e-05
0.00404767
-1.41126e-05
0.00404256
-1.25485e-05
-1.01593e-05
0.00320339
4.29291e-06
0.00321391
1.33995e-05
0.003231
2.20226e-05
0.00325337
2.91543e-05
0.0032794
3.41919e-05
0.00330737
3.68683e-05
0.00333556
3.70629e-05
0.00336222
3.46638e-05
0.00338562
2.95631e-05
0.00340403
2.15876e-05
0.00341567
1.05235e-05
0.00341831
-3.76755e-06
0.00340956
-2.22466e-05
0.00338646
-4.5789e-05
0.00334532
-7.57257e-05
0.00328146
-0.000113884
0.00318889
-0.000162808
0.00305978
-0.000226084
0.00288379
-0.000308826
0.00264715
-0.000418437
0.00233123
-0.000565863
0.0019107
-0.00076769
0.00135078
-0.00104938
0.000601231
-0.00144442
-0.000413277
-0.00193767
-0.00176025
-0.00215413
2.38698e-18
-0.000492056
1.0041e-18
1.37626e-18
3.93192e-19
3.98688e-19
-5.39672e-20
4.33803e-20
7.88799e-21
-1.20206e-20
-7.15702e-21
-7.6002e-21
-1.41376e-21
-2.05043e-21
3.1287e-26
1.26869e-27
5.98453e-26
-1.08677e-28
3.9893e-22
-3.45046e-30
-2.48226e-19
7.12889e-24
8.03299e-19
-2.85283e-20
-0.00342949
-0.000147645
-0.00348071
-0.000599253
-0.00348229
-0.00050081
-0.00335658
-0.000232446
-0.00308218
6.52857e-05
-0.00266788
0.000349433
-0.0021451
0.000609117
-0.00154316
0.00081369
-0.000894459
0.000957706
-0.000231291
0.00104063
0.000418737
0.00106969
0.00103396
0.00105579
0.00159963
0.00100708
0.00210535
0.000932575
0.002546
0.000839515
0.00292027
0.000736356
0.0032293
0.000631326
0.00347742
0.000529301
0.00367137
0.000433826
0.00381887
0.000347567
0.00392749
0.00027205
0.00400463
0.000207808
0.00405699
0.000154542
0.00409034
0.000111407
0.00410948
7.72657e-05
0.00411834
5.08604e-05
0.00412003
3.09463e-05
0.00411704
1.63821e-05
0.00411114
6.20179e-06
0.00410351
-4.04222e-07
0.00409524
-4.70667e-06
0.00408705
-7.19477e-06
0.00407939
-8.35802e-06
0.0040725
-8.57715e-06
0.00406652
-8.12523e-06
0.00406136
-7.38847e-06
-6.1088e-06
0.00320291
1.38191e-06
0.00321201
4.30513e-06
0.00322693
7.10304e-06
0.00324664
9.44052e-06
0.00326975
1.10882e-05
0.00329465
1.19618e-05
0.0033197
1.20176e-05
0.00334315
1.12122e-05
0.00336321
9.50578e-06
0.00337797
6.83259e-06
0.00338549
3.00616e-06
0.00338354
-1.81963e-06
0.00336934
-8.04159e-06
0.00333957
-1.6016e-05
0.00329004
-2.61938e-05
0.00321536
-3.91991e-05
0.00310847
-5.59151e-05
0.00295999
-7.75981e-05
0.00275722
-0.000106048
0.00248269
-0.000143891
0.00211188
-0.000195043
0.00160973
-0.000265521
0.000924991
-0.000364629
-1.71958e-05
-0.000502211
-0.00128532
-0.000669529
-0.00272577
-0.00071367
4.83786e-18
-7.44225e-05
2.33136e-19
-4.21019e-19
3.87806e-19
-1.13422e-19
9.21968e-21
-6.9048e-20
1.15747e-20
-2.2545e-20
-7.01659e-21
-2.15215e-21
-5.06659e-22
-3.01651e-22
2.49587e-26
-4.26926e-29
5.11044e-26
-7.89756e-30
1.13314e-25
2.96341e-27
-6.73467e-20
3.61685e-28
4.48077e-19
-5.16948e-21
-0.00323831
-5.27429e-05
-0.0036165
-0.000221056
-0.0039263
-0.000191012
-0.00405668
-0.000102074
-0.00398603
-5.36357e-06
-0.00373046
9.38676e-05
-0.0033108
0.000189461
-0.00276056
0.000263443
-0.00211974
0.00031689
-0.0014283
0.000349181
-0.000721215
0.000362606
-2.60517e-05
0.000360627
0.000634216
0.000346814
0.00124304
0.000323754
0.00178934
0.000293217
0.00226797
0.000257722
0.00267726
0.000222036
0.00301871
0.000187851
0.00329745
0.000155088
0.00351988
0.00012514
0.00369321
9.87196e-05
0.00382495
7.60678e-05
0.00392235
5.71392e-05
0.00399206
4.16933e-05
0.00403995
2.93749e-05
0.00407105
1.97701e-05
0.00408953
1.24595e-05
0.00409888
7.038e-06
0.00410194
3.1415e-06
0.00410087
6.59013e-07
0.00409716
-9.91337e-07
0.00409193
-1.96924e-06
0.00408609
-2.51235e-06
0.00408021
-2.70314e-06
0.00407472
-2.63235e-06
0.00406976
-2.43e-06
-2.03319e-06
0.00320275
-1.36787e-06
0.00321136
-4.30106e-06
0.00322556
-7.10095e-06
0.00324444
-9.43276e-06
0.0032666
-1.10778e-05
0.00329052
-1.19502e-05
0.00331454
-1.20051e-05
0.00333695
-1.11981e-05
0.00335595
-9.4893e-06
0.0033696
-6.813e-06
0.00337559
-2.98289e-06
0.00337192
1.84729e-06
0.00335581
8.07295e-06
0.00332374
1.60507e-05
0.00327132
2.62307e-05
0.00319289
3.9236e-05
0.00308103
5.59514e-05
0.00292581
7.76309e-05
0.0027137
0.000106076
0.00242591
0.000143911
0.00203583
0.000195051
0.00150482
0.000265509
0.000775619
0.000364589
-0.000228701
0.000502125
-0.00156754
0.000669322
-0.00299459
0.000713396
4.24975e-18
7.43928e-05
4.29819e-19
4.20786e-19
3.01322e-19
1.13347e-19
2.89457e-21
6.89286e-20
1.4692e-20
2.25412e-20
-6.75061e-21
2.15031e-21
-2.36316e-22
3.01667e-22
2.22541e-26
4.31519e-29
5.23801e-26
2.09124e-29
9.10687e-26
-3.70041e-27
-8.05156e-20
-3.83647e-28
1.19259e-19
5.20406e-21
-0.00324908
5.29284e-05
-0.00369232
0.000222187
-0.00407554
0.000192212
-0.00428083
0.000103209
-0.00429258
6.39278e-06
-0.00410563
-9.30846e-05
-0.00372723
-0.000188939
-0.00320059
-0.000263197
-0.00256679
-0.000316908
-0.00186818
-0.000349426
-0.00114255
-0.000363031
-0.00042074
-0.000361179
0.000273517
-0.000347444
0.000921676
-0.000324405
0.00150874
-0.000293842
0.00202473
-0.000258271
0.00246926
-0.00022249
0.00284531
-0.000188209
0.00315576
-0.000155362
0.00340623
-0.00012533
0.00360379
-9.88409e-05
0.003756
-7.61363e-05
0.00387031
-5.71704e-05
0.0039537
-4.17e-05
0.00401244
-2.93683e-05
0.00405197
-1.97581e-05
0.00407688
-1.24482e-05
0.00409095
-7.03054e-06
0.00409723
-3.13896e-06
0.00409855
-6.61066e-07
0.00409657
9.86462e-07
0.00409264
1.96211e-06
0.00408762
2.50446e-06
0.00408222
2.69518e-06
0.00407697
2.62493e-06
0.00407211
2.42347e-06
2.0277e-06
0.00320292
-4.28511e-06
0.00321201
-1.33898e-05
0.00322693
-2.20213e-05
0.00324664
-2.91453e-05
0.00326975
-3.41812e-05
0.00329465
-3.68565e-05
0.0033197
-3.70504e-05
0.00334315
-3.46497e-05
0.00336321
-2.95468e-05
0.00337797
-2.15682e-05
0.00338549
-1.05006e-05
0.00338354
3.79476e-06
0.00336934
2.22778e-05
0.00333957
4.5824e-05
0.00329004
7.57629e-05
0.00321536
0.000113922
0.00310847
0.000162846
0.00295999
0.00022612
0.00275722
0.000308856
0.00248269
0.000418461
0.00211188
0.000565874
0.00160972
0.000767684
0.000924976
0.00104935
-1.72159e-05
0.00144434
-0.00128536
0.00193747
-0.00272579
0.00215384
4.83887e-18
0.000492014
2.33463e-19
-1.37681e-18
3.87917e-19
-3.988e-19
9.22254e-21
-4.38414e-20
1.15796e-20
1.20089e-20
-7.01886e-21
7.5955e-21
-5.0685e-22
2.04963e-21
2.4824e-26
-1.26636e-27
5.04154e-26
1.19167e-28
1.13098e-25
3.22004e-29
-6.73559e-20
-6.18048e-24
4.47985e-19
2.85821e-20
-0.00323855
0.000148077
-0.00361677
0.000600405
-0.00392656
0.000502002
-0.00405692
0.000233568
-0.00398621
-6.43218e-05
-0.00373055
-0.000348738
-0.00331079
-0.000608699
-0.00276044
-0.000813547
-0.00211954
-0.000957815
-0.00142802
-0.00104094
-0.000720897
-0.00107016
-2.57089e-05
-0.00105637
0.000634559
-0.00100771
0.00124336
-0.000933206
0.00178962
-0.000840106
0.00226822
-0.000736864
0.00267747
-0.000631744
0.00301888
-0.000529622
0.00329758
-0.000434058
0.00351997
-0.000347721
0.00369327
-0.000272142
0.00382499
-0.000207855
0.00392238
-0.000154558
0.00399208
-0.000111404
0.00403997
-7.72535e-05
0.00407106
-5.08455e-05
0.00408954
-3.09336e-05
0.00409888
-1.6374e-05
0.00410194
-6.19874e-06
0.00410088
4.02669e-07
0.00409716
4.70208e-06
0.00409194
7.18816e-06
0.00408609
8.35067e-06
0.00408022
8.56988e-06
0.00407472
8.1185e-06
0.00406976
7.38261e-06
6.10392e-06
0.0032034
-7.68549e-06
0.00321391
-2.38997e-05
0.003231
-3.91093e-05
0.00325337
-5.15179e-05
0.00327941
-6.02122e-05
0.00330737
-6.48254e-05
0.00333556
-6.52295e-05
0.00336222
-6.13093e-05
0.00338562
-5.29516e-05
0.00340403
-3.99761e-05
0.00341567
-2.21394e-05
0.00341831
1.16056e-06
0.00340956
3.10217e-05
0.00338646
6.89275e-05
0.00334532
0.000116909
0.00328147
0.000177783
0.0031889
0.000255424
0.00305978
0.000355243
0.0028838
0.000484854
0.00264715
0.000655121
0.00233123
0.000881805
0.00191069
0.00118824
0.00135075
0.0016093
0.000601185
0.00219392
-0.000413351
0.00295203
-0.00176034
0.00350084
2.38725e-18
0.00187509
1.0043e-18
-1.77387e-18
3.93265e-19
-2.82459e-19
-5.34471e-20
-3.11037e-19
7.89777e-21
-5.28345e-20
-7.15608e-21
-1.237e-20
-1.41341e-21
4.43293e-21
3.12759e-26
1.61979e-22
5.98492e-26
-3.47439e-27
3.71703e-22
-2.6904e-27
-2.48291e-19
8.32979e-21
8.03039e-19
1.47916e-18
-0.00342989
0.000434564
-0.00348118
0.000651692
-0.00348279
0.000503612
-0.00335703
0.000107804
-0.00308247
-0.000338877
-0.002668
-0.000763204
-0.00214503
-0.00113167
-0.00154292
-0.00141566
-0.000894056
-0.00160668
-0.000230773
-0.00170422
0.00041933
-0.00172026
0.00103459
-0.00167162
0.00160025
-0.00157337
0.00210593
-0.00143889
0.00254652
-0.00128069
0.00292071
-0.00111106
0.00322966
-0.000940693
0.0034777
-0.000777661
0.00367159
-0.000627945
0.00381902
-0.000495153
0.00392759
-0.000380713
0.0040047
-0.000284962
0.00405703
-0.000206892
0.00409037
-0.000144738
0.0041095
-9.63905e-05
0.00411836
-5.96989e-05
0.00412005
-3.26215e-05
0.00411706
-1.33839e-05
0.00411116
-3.03123e-07
0.00410352
8.03875e-06
0.00409525
1.2974e-05
0.00408706
1.53824e-05
0.0040794
1.60068e-05
0.00407251
1.54569e-05
0.00406653
1.41071e-05
0.00406136
1.25439e-05
1.01555e-05
0.00320426
-1.19436e-05
0.00321734
-3.69836e-05
0.00323832
-6.00888e-05
0.0032654
-7.85956e-05
0.00329655
-9.13635e-05
0.00332982
-9.80954e-05
0.00336338
-9.87792e-05
0.00339547
-9.34033e-05
0.00342445
-8.19297e-05
0.00344872
-6.42457e-05
0.00346664
-4.0054e-05
0.0034764
-8.59796e-06
0.00347601
3.14068e-05
0.00346309
8.18551e-05
0.00343471
0.000145292
0.00338731
0.000225184
0.00331648
0.000326264
0.0032167
0.00045503
0.00308109
0.000620468
0.00290114
0.000835083
0.00266648
0.00111648
0.00236482
0.00148991
0.00198226
0.00199187
0.00150205
0.00267413
0.000868172
0.00358592
-0.000158448
0.00452748
-0.000995476
0.00422541
2.07626e-18
0.000634643
-1.46618e-19
-1.05802e-18
2.05111e-19
1.72628e-19
1.28245e-21
4.8521e-20
1.304e-20
1.60712e-20
-3.58408e-21
-6.18722e-21
-1.65386e-23
6.65426e-21
1.24283e-23
9.03287e-21
-1.98154e-19
8.93982e-21
-3.1554e-19
1.35678e-18
-0.00192311
5.48945e-05
-0.00319618
0.000432441
-0.00295089
0.000406401
-0.00256941
0.000122138
-0.00209918
-0.000362433
-0.00156104
-0.000877011
-0.000965002
-0.00135925
-0.000332045
-0.00176463
0.000311606
-0.00205931
0.000940651
-0.00223572
0.00153036
-0.00229393
0.00206848
-0.00225838
0.00254593
-0.00214907
0.00295657
-0.00198402
0.00329895
-0.00178127
0.00357656
-0.0015583
0.00379403
-0.00132852
0.00395683
-0.0011035
0.00407208
-0.000892914
0.00414842
-0.000704285
0.00419416
-0.000540894
0.00421641
-0.000402956
0.00422171
-0.000290265
0.00421553
-0.000200706
0.0042021
-0.00013131
0.00418463
-7.89226e-05
0.00416545
-4.05179e-05
0.00414613
-1.33061e-05
0.00412768
5.0665e-06
0.00411071
1.66715e-05
0.00409552
2.32272e-05
0.00408232
2.61779e-05
0.00407108
2.66209e-05
0.00406169
2.53983e-05
0.00405394
2.32016e-05
0.00404768
2.0371e-05
0.00404257
1.76553e-05
1.39397e-05
0.00320565
-1.75895e-05
0.00322288
-5.42165e-05
0.00325
-8.72091e-05
0.00328432
-0.000112918
0.00332319
-0.000130234
0.00336429
-0.000139191
0.00340555
-0.000140041
0.00344518
-0.000133029
0.00348156
-0.000118309
0.00351324
-9.59258e-05
0.00353888
-6.56875e-05
0.00355717
-2.6893e-05
0.00356671
2.18692e-05
0.00356584
8.27264e-05
0.00355266
0.000158472
0.00352499
0.000252859
0.00348033
0.000370935
0.00341584
0.00051952
0.00332853
0.000707786
0.00321557
0.000948048
0.00307498
0.00125707
0.00290714
0.00165776
0.00271751
0.0021815
0.00252087
0.00287078
0.00233152
0.00377528
0.00198553
0.00487347
0.000620341
0.0055906
-0.000262998
0.00418048
5.88025e-19
0.000217919
1.15593e-19
8.7381e-19
4.90131e-20
3.10327e-19
1.64029e-20
8.32327e-20
2.34668e-20
3.25089e-20
8.83026e-22
1.1524e-21
-2.25076e-19
-2.39739e-20
-5.56071e-19
1.75075e-18
-0.000579195
-3.14929e-05
-0.00292296
-0.000134061
-0.00240096
-8.95536e-05
-0.00170424
-0.000290319
-0.000922477
-0.000659627
-0.000142156
-0.00114275
0.000615089
-0.00163426
0.00134283
-0.00208699
0.00201305
-0.00243484
0.00259986
-0.00264613
0.00309728
-0.00273314
0.0035109
-0.00270755
0.00385293
-0.00260041
0.00412375
-0.00241989
0.00432617
-0.00218644
0.0044678
-0.00192289
0.00455726
-0.00164776
0.00460213
-0.0013734