/*--------------------------------*- C++ -*----------------------------------*\
| =========                 |                                                 |
| \\      /  F ield         | OpenFOAM: The Open Source CFD Toolbox           |
|  \\    /   O peration     | Version:  2206                                  |
|   \\  /    A nd           | Website:  www.openfoam.com                      |
|    \\/     M anipulation  |                                                 |
\*---------------------------------------------------------------------------*/
FoamFile
{
    version     2.0;
    format      ascii;
    arch        "LSB;label=32;scalar=64";
    class       surfaceVectorField;
    location    "1";
    object      Uf;
}
// * * * * * * * * * * * * * * * * * * * * * * * * * * * * * * * * * * * * * //

dimensions      [0 1 -1 0 0 0 0];

internalField   nonuniform List<vector> 
3650
(
(0.860241 0.0529981 0)
(0.903224 0.139759 0)
(0.702876 0.0842206 0)
(0.901176 0.157365 0)
(0.570027 0.0657559 0)
(0.845151 0.132849 0)
(0.467785 0.0362783 0)
(0.755743 0.102242 0)
(0.393193 0.0184147 0)
(0.677372 0.0745925 0)
(0.341163 0.00957992 0)
(0.614179 0.0520298 0)
(0.305399 0.00469211 0)
(0.564329 0.0357645 0)
(0.281272 0.00186956 0)
(0.525054 0.0241268 0)
(0.265386 0.000219109 0)
(0.495204 0.0158863 0)
(0.255519 -0.000860062 0)
(0.473433 0.00986536 0)
(0.250488 -0.00172673 0)
(0.458514 0.00503134 0)
(0.24966 -0.00255151 0)
(0.449748 0.000826409 0)
(0.252725 -0.00348767 0)
(0.446687 -0.00306397 0)
(0.259682 -0.00463847 0)
(0.449058 -0.00695838 0)
(0.271158 -0.00603483 0)
(0.457192 -0.0114752 0)
(0.287875 -0.00775284 0)
(0.471908 -0.0167187 0)
(0.310855 -0.00990325 0)
(0.494128 -0.0229795 0)
(0.341412 -0.0125893 0)
(0.525138 -0.0305586 0)
(0.381165 -0.015908 0)
(0.566584 -0.0397523 0)
(0.432016 -0.0199444 0)
(0.620441 -0.050852 0)
(0.49611 -0.0247431 0)
(0.688979 -0.0640949 0)
(0.575692 -0.0302632 0)
(0.774665 -0.0795833 0)
(0.672852 -0.0363037 0)
(0.87998 -0.0971613 0)
(0.789076 -0.0424045 0)
(1.00707 -0.116227 0)
(0.924533 -0.0486853 0)
(1.1573 -0.135457 0)
(1.078 -0.0545168 0)
(1.33038 -0.153471 0)
(1.24512 -0.0566352 0)
(1.52413 -0.167118 0)
(1.41687 -0.0517598 0)
(1.7321 -0.171752 0)
(1.58021 -0.0381177 0)
(1.94349 -0.16334 0)
(1.71881 -0.0160282 0)
(2.14505 -0.1386 0)
(1.815 0.0126058 0)
(2.31878 -0.0961965 0)
(1.85305 0.040634 0)
(2.44398 -0.0380467 0)
(1.82897 0.0649929 0)
(2.50481 0.0240833 0)
(1.74517 0.0835096 0)
(2.49987 0.0837949 0)
(1.61294 0.0935172 0)
(2.43222 0.132229 0)
(1.44462 0.0960834 0)
(2.31183 0.168323 0)
(1.25608 0.0904486 0)
(2.15198 0.188535 0)
(1.0619 0.078859 0)
(1.96652 0.194185 0)
(0.873651 0.0617387 0)
(1.76626 0.188245 0)
(0.702311 0.0408522 0)
(1.5603 0.171339 0)
(0.554118 0.0230093 0)
(1.35626 0.148192 0)
(0.428851 0.0118575 0)
(1.15756 0.125266 0)
(0.324544 0.00589165 0)
(0.969116 0.104307 0)
(0.238491 0.00311712 0)
(0.79517 0.0860515 0)
(0.168377 0.00187898 0)
(0.640745 0.0701144 0)
(0.112702 0.00115869 0)
(0.508604 0.0556738 0)
(0.070064 0.000576384 0)
(0.39886 0.0426379 0)
(0.038797 3.34151e-05 0)
(0.31072 0.0312662 0)
(0.0173238 -0.000531535 0)
(0.242764 0.0214729 0)
(0.0042651 -0.00120118 0)
(0.19287 0.0130582 0)
(-0.00162012 -0.00185785 0)
(0.158171 0.00588494 0)
(-0.00174665 -0.0023005 0)
(0.136346 0.00012634 0)
(0.00258798 -0.0026479 0)
(0.125479 -0.00433493 0)
(0.0108517 -0.00283607 0)
(0.124045 -0.00826392 0)
(0.0218094 -0.00279452 0)
(0.129106 -0.010958 0)
(0.0348087 -0.00277425 0)
(0.139586 -0.0129994 0)
(0.0488589 -0.00274346 0)
(0.153694 -0.0140506 0)
(0.0633153 -0.0025889 0)
(0.169779 -0.0144564 0)
(0.0774841 -0.00237228 0)
(0.186883 -0.0141691 0)
(0.0909231 -0.00213503 0)
(0.204069 -0.0134391 0)
(0.103281 -0.00189056 0)
(0.220513 -0.0123578 0)
(0.114334 -0.00166489 0)
(0.235712 -0.0110534 0)
(0.12398 -0.00150502 0)
(0.249382 -0.00964579 0)
(0.132229 -0.00145849 0)
(0.261356 -0.00824904 0)
(0.139183 -0.00141681 0)
(0.271618 -0.00695403 0)
(0.144921 -0.00125798 0)
(0.280261 -0.00573903 0)
(0.149561 -0.00103886 0)
(0.287604 -0.00463957 0)
(0.153265 -0.000797832 0)
(0.292979 -0.003704 0)
(0.156184 -0.000594417 0)
(0.297752 -0.00291869 0)
(0.158481 -0.00046091 0)
(0.30146 -0.00229755 0)
(0.160266 -0.000352331 0)
(0.304353 -0.00178467 0)
(0.161638 -0.000266739 0)
(0.306604 -0.00137224 0)
(0.162687 -0.000198431 0)
(0.308344 -0.00104899 0)
(0.163483 -0.000177961 0)
(0.309667 -0.00079591 0)
(0.310908 -0.000653255 0)
(1.05207 0.153778 0)
(1.01334 0.0876891 0)
(1.04876 0.181427 0)
(1.05613 0.160678 0)
(1.01338 0.16626 0)
(1.06906 0.168228 0)
(0.960178 0.141087 0)
(1.05272 0.155442 0)
(0.898182 0.110443 0)
(1.01936 0.136589 0)
(0.836854 0.0810814 0)
(0.979198 0.113358 0)
(0.782789 0.057734 0)
(0.938656 0.0898293 0)
(0.738108 0.0402116 0)
(0.899742 0.0688076 0)
(0.702736 0.0270373 0)
(0.864897 0.0512576 0)
(0.676005 0.0166495 0)
(0.835923 0.0365967 0)
(0.657373 0.00790271 0)
(0.813327 0.0236627 0)
(0.646302 9.00342e-05 0)
(0.79738 0.0118969 0)
(0.642478 -0.00730146 0)
(0.788107 0.000759216 0)
(0.645915 -0.0151077 0)
(0.785612 -0.010395 0)
(0.657197 -0.0240114 0)
(0.790413 -0.0227575 0)
(0.677207 -0.0343402 0)
(0.803463 -0.0367289 0)
(0.707192 -0.0465886 0)
(0.825804 -0.0529655 0)
(0.74879 -0.0612505 0)
(0.858851 -0.0721563 0)
(0.804001 -0.0787958 0)
(0.904399 -0.094964 0)
(0.875176 -0.0996307 0)
(0.9646 -0.122027 0)
(0.964947 -0.124001 0)
(1.04196 -0.153866 0)
(1.07608 -0.151838 0)
(1.13927 -0.190721 0)
(1.21125 -0.182542 0)
(1.25948 -0.232334 0)
(1.37263 -0.214678 0)
(1.40545 -0.277608 0)
(1.5614 -0.245683 0)
(1.57952 -0.32422 0)
(1.77622 -0.271737 0)
(1.78277 -0.368297 0)
(2.01299 -0.287713 0)
(2.0139 -0.40389 0)
(2.26412 -0.287652 0)
(2.2686 -0.422886 0)
(2.51712 -0.265939 0)
(2.53748 -0.416334 0)
(2.75487 -0.218394 0)
(2.80673 -0.376351 0)
(2.95671 -0.144651 0)
(3.05492 -0.29804 0)
(3.10319 -0.0515488 0)
(3.25581 -0.184524 0)
(3.17946 0.0461735 0)
(3.39033 -0.0521866 0)
(3.18504 0.135091 0)
(3.44961 0.07821 0)
(3.12635 0.20944 0)
(3.44082 0.190922 0)
(3.01417 0.264652 0)
(3.37289 0.280502 0)
(2.85815 0.2983 0)
(3.25908 0.344556 0)
(2.66804 0.312802 0)
(3.11232 0.384293 0)
(2.45146 0.311502 0)
(2.93984 0.404825 0)
(2.21211 0.297405 0)
(2.74508 0.410685 0)
(1.95648 0.27366 0)
(2.5283 0.40383 0)
(1.69507 0.243558 0)
(2.2924 0.386676 0)
(1.43812 0.209773 0)
(2.04573 0.361257 0)
(1.19679 0.174554 0)
(1.79644 0.327373 0)
(0.980538 0.140193 0)
(1.55363 0.28637 0)
(0.79436 0.108641 0)
(1.32491 0.241851 0)
(0.639386 0.0810056 0)
(1.11699 0.197612 0)
(0.514806 0.0575162 0)
(0.935183 0.155845 0)
(0.418411 0.0379073 0)
(0.782632 0.117867 0)
(0.346732 0.0217007 0)
(0.660482 0.0847375 0)
(0.296226 0.00844299 0)
(0.566104 0.0563906 0)
(0.263828 -0.00215597 0)
(0.496582 0.032524 0)
(0.246805 -0.0106414 0)
(0.449125 0.0126881 0)
(0.242363 -0.0172286 0)
(0.420254 -0.00382203 0)
(0.24687 -0.0220779 0)
(0.405353 -0.0154655 0)
(0.258485 -0.0251566 0)
(0.402291 -0.0246143 0)
(0.274657 -0.0264961 0)
(0.407909 -0.0302234 0)
(0.293575 -0.0265801 0)
(0.418957 -0.0333747 0)
(0.313688 -0.0256389 0)
(0.433961 -0.034282 0)
(0.333904 -0.0239403 0)
(0.451005 -0.0336551 0)
(0.353214 -0.0216985 0)
(0.468423 -0.0316677 0)
(0.371026 -0.0191663 0)
(0.485452 -0.0288661 0)
(0.387005 -0.0165449 0)
(0.501481 -0.025625 0)
(0.400969 -0.013974 0)
(0.515956 -0.022213 0)
(0.412873 -0.011572 0)
(0.528673 -0.018858 0)
(0.422846 -0.00941752 0)
(0.539579 -0.0157121 0)
(0.431068 -0.00757094 0)
(0.548866 -0.012861 0)
(0.437751 -0.00603647 0)
(0.556363 -0.0103875 0)
(0.443132 -0.00476825 0)
(0.562621 -0.00829967 0)
(0.447401 -0.0037303 0)
(0.56765 -0.00656655 0)
(0.450753 -0.00288633 0)
(0.571648 -0.00513665 0)
(0.453358 -0.00221341 0)
(0.574796 -0.00397754 0)
(0.45536 -0.0016862 0)
(0.577266 -0.00305036 0)
(0.456895 -0.00128618 0)
(0.579113 -0.00233164 0)
(0.580918 -0.00173083 0)
(1.03973 0.109448 0)
(1.00916 0.0479638 0)
(1.08287 0.154493 0)
(1.04777 0.117537 0)
(1.10522 0.161262 0)
(1.08863 0.145871 0)
(1.10971 0.154686 0)
(1.1132 0.150956 0)
(1.10034 0.142022 0)
(1.12117 0.145963 0)
(1.08078 0.123633 0)
(1.12079 0.132915 0)
(1.05492 0.101998 0)
(1.11128 0.115693 0)
(1.02597 0.0804589 0)
(1.09605 0.0977539 0)
(0.997678 0.0609101 0)
(1.07801 0.0795493 0)
(0.972837 0.0434074 0)
(1.06003 0.0614376 0)
(0.952983 0.0273977 0)
(1.04389 0.0435164 0)
(0.938787 0.0123046 0)
(1.03095 0.026092 0)
(0.930732 -0.0026145 0)
(1.0221 0.00881403 0)
(0.929546 -0.0184134 0)
(1.01813 -0.00920894 0)
(0.936037 -0.0360247 0)
(1.02014 -0.029248 0)
(0.951226 -0.0561104 0)
(1.02927 -0.0519189 0)
(0.976384 -0.0794907 0)
(1.04666 -0.0781234 0)
(1.01311 -0.107019 0)
(1.07357 -0.108881 0)
(1.06333 -0.139548 0)
(1.11188 -0.145186 0)
(1.12936 -0.17784 0)
(1.16375 -0.18806 0)
(1.2139 -0.222414 0)
(1.23177 -0.238406 0)
(1.31996 -0.273307 0)
(1.31902 -0.296785 0)
(1.4508 -0.32975 0)
(1.42904 -0.363171 0)
(1.60959 -0.389709 0)
(1.56578 -0.436402 0)
(1.79896 -0.449338 0)
(1.7334 -0.513589 9.11216e-34)
(2.01998 -0.502523 0)
(1.93551 -0.589314 -8.63508e-34)
(2.27123 -0.540553 0)
(2.17441 -0.655141 0)
(2.54727 -0.552261 0)
(2.45008 -0.698927 0)
(2.83541 -0.526325 0)
(2.75507 -0.704476 0)
(3.11661 -0.453956 0)
(3.06811 -0.657556 0)
(3.36437 -0.335301 0)
(3.35355 -0.545796 0)
(3.54995 -0.183633 0)
(3.57886 -0.370108 0)
(3.66203 -0.0202636 0)
(3.72401 -0.164266 0)
(3.70286 0.13157 0)
(3.79735 0.0373776 0)
(3.68063 0.257553 0)
(3.78968 0.213156 0)
(3.61168 0.35526 0)
(3.73597 0.349447 0)
(3.50958 0.425559 0)
(3.64707 0.446662 0)
(3.38229 0.472014 0)
(3.53904 0.511585 0)
(3.23284 0.500244 0)
(3.41603 0.554275 0)
(3.05984 0.513787 0)
(3.27691 0.583684 0)
(2.86222 0.513992 0)
(3.12064 0.60144 0)
(2.64169 0.501533 0)
(2.94332 0.607206 0)
(2.40328 0.476651 0)
(2.74687 0.599669 0)
(2.15284 0.439388 0)
(2.53377 0.577817 0)
(1.89773 0.391153 0)
(2.30819 0.541478 0)
(1.6475 0.335364 0)
(2.07588 0.492076 0)
(1.41288 0.276281 0)
(1.84487 0.432233 0)
(1.20325 0.217911 0)
(1.62369 0.365474 0)
(1.02489 0.163922 0)
(1.4201 0.296226 0)
(0.879812 0.116659 0)
(1.24125 0.22982 0)
(0.766575 0.0766075 0)
(1.09011 0.169628 0)
(0.682094 0.043318 0)
(0.967489 0.117004 0)
(0.622469 0.016235 0)
(0.872437 0.0723137 0)
(0.583066 -0.00497313 0)
(0.801882 0.0355806 0)
(0.560847 -0.0210412 0)
(0.752333 0.00675303 0)
(0.551647 -0.0322732 0)
(0.720473 -0.0154146 0)
(0.552194 -0.0391914 0)
(0.702573 -0.0307706 0)
(0.559571 -0.0427644 0)
(0.695016 -0.040751 0)
(0.571452 -0.0436439 0)
(0.695381 -0.0461632 0)
(0.585735 -0.0424568 0)
(0.700974 -0.0479383 0)
(0.600907 -0.0396732 0)
(0.709466 -0.0468401 0)
(0.616135 -0.0359177 0)
(0.719779 -0.0440947 0)
(0.63066 -0.0316741 0)
(0.730765 -0.04015 0)
(0.643889 -0.0273047 0)
(0.741547 -0.0354421 0)
(0.655573 -0.0230731 0)
(0.751696 -0.0305418 0)
(0.665667 -0.0191527 0)
(0.760872 -0.0258058 0)
(0.674233 -0.0156493 0)
(0.768941 -0.0214279 0)
(0.681372 -0.0126216 0)
(0.775871 -0.0175259 0)
(0.687228 -0.0100672 0)
(0.78172 -0.0141561 0)
(0.691964 -0.00794292 0)
(0.786561 -0.0113021 0)
(0.695748 -0.00620042 0)
(0.790514 -0.00892108 0)
(0.698741 -0.00479024 0)
(0.793691 -0.00697075 0)
(0.701072 -0.00367701 0)
(0.796252 -0.0053808 0)
(0.702901 -0.00276026 0)
(0.798164 -0.00416132 0)
(0.800148 -0.00301212 0)
(1.01986 0.0644373 0)
(1.00425 0.0280998 0)
(1.06004 0.109466 0)
(1.02735 0.0773637 0)
(1.09708 0.133208 0)
(1.06482 0.108828 0)
(1.12392 0.140194 0)
(1.09904 0.124113 0)
(1.14172 0.136092 0)
(1.12409 0.128164 0)
(1.15095 0.125261 0)
(1.14333 0.123684 0)
(1.15234 0.111929 0)
(1.15434 0.114307 0)
(1.14782 0.0972767 0)
(1.15955 0.102269 0)
(1.13988 0.080816 0)
(1.16061 0.0874953 0)
(1.13073 0.0625316 0)
(1.1592 0.0705867 0)
(1.12168 0.0431083 0)
(1.15564 0.0525664 0)
(1.11396 0.023332 0)
(1.15199 0.0338146 0)
(1.10906 0.00283657 0)
(1.14936 0.0137051 0)
(1.10823 -0.0193759 0)
(1.14879 -0.00837871 0)
(1.11285 -0.044289 0)
(1.15152 -0.0338605 0)
(1.12399 -0.0729361 0)
(1.15874 -0.0630646 0)
(1.14289 -0.106386 0)
(1.17168 -0.0970254 0)
(1.17111 -0.145758 0)
(1.19127 -0.137094 0)
(1.21072 -0.192273 0)
(1.2199 -0.184793 0)
(1.26416 -0.247171 0)
(1.25949 -0.241506 0)
(1.33442 -0.311433 0)
(1.31282 -0.308669 0)
(1.42516 -0.385613 0)
(1.38347 -0.387518 0)
(1.54072 -0.469341 0)
(1.47598 -0.478733 0)
(1.68619 -0.560565 9.11216e-34)
(1.59601 -0.581875 0)
(1.86707 -0.654676 5.09913e-35)
(1.75048 -0.694471 9.11216e-34)
(2.08842 -0.743616 -8.63508e-34)
(1.947 -0.810664 -8.63508e-34)
(2.35445 -0.814516 0)
(2.19491 -0.921172 0)
(2.66386 -0.848935 0)
(2.5005 -1.00834 0)
(2.99736 -0.827575 0)
(2.84786 -1.03798 0)
(3.3188 -0.733685 0)
(3.18472 -0.978995 0)
(3.58129 -0.560227 0)
(3.46072 -0.808287 0)
(3.76131 -0.334459 0)
(3.66931 -0.550121 0)
(3.85897 -0.097875 0)
(3.75443 -0.261931 0)
(3.87804 0.123489 0)
(3.77826 0.0183043 0)
(3.83616 0.30498 0)
(3.73088 0.255041 0)
(3.76209 0.436462 0)
(3.6553 0.423516 0)
(3.67244 0.527497 0)
(3.56918 0.53631 0)
(3.57202 0.589502 0)
(3.48764 0.612008 0)
(3.46031 0.634253 0)
(3.40738 0.665985 0)
(3.33725 0.668458 0)
(3.31956 0.706746 0)
(3.20094 0.692662 0)
(3.2191 0.737747 0)
(3.04758 0.704775 0)
(3.10495 0.760561 0)
(2.87652 0.701249 0)
(2.97881 0.770736 0)
(2.6882 0.68039 0)
(2.82931 0.766132 0)
(2.48607 0.642331 0)
(2.66246 0.743612 0)
(2.27347 0.588499 0)
(2.48288 0.704672 0)
(2.05573 0.521274 0)
(2.29492 0.649973 0)
(1.84076 0.444358 0)
(2.10313 0.580445 0)
(1.6369 0.363275 0)
(1.91365 0.500087 0)
(1.45183 0.28395 0)
(1.73286 0.414885 0)
(1.2913 0.210733 0)
(1.56614 0.330165 0)
(1.15801 0.146109 0)
(1.41836 0.250292 0)
(1.05191 0.0912892 0)
(1.29241 0.178407 0)
(0.970921 0.0465965 0)
(1.18893 0.116574 0)
(0.912024 0.0115572 0)
(1.10706 0.0656499 0)
(0.871261 -0.0146245 0)
(1.04457 0.025348 0)
(0.8454 -0.0329035 0)
(0.998866 -0.00490885 0)
(0.83099 -0.0445251 0)
(0.967053 -0.0263411 0)
(0.825019 -0.0506113 0)
(0.946399 -0.0401929 0)
(0.824819 -0.0522847 0)
(0.934227 -0.0477378 0)
(0.828587 -0.0511479 0)
(0.92836 -0.0506088 0)
(0.834596 -0.0482093 0)
(0.926496 -0.0501034 0)
(0.841822 -0.0437734 0)
(0.92768 -0.0473764 0)
(0.849546 -0.0385292 0)
(0.930618 -0.0431662 0)
(0.857154 -0.0331398 0)
(0.934596 -0.03815 0)
(0.864272 -0.0279626 0)
(0.939062 -0.0329234 0)
(0.870692 -0.0232031 0)
(0.943584 -0.0278483 0)
(0.876315 -0.0189753 0)
(0.947894 -0.0231486 0)
(0.881128 -0.01532 0)
(0.951818 -0.018969 0)
(0.885169 -0.0122216 0)
(0.955279 -0.015343 0)
(0.888506 -0.00964342 0)
(0.95826 -0.0122583 0)
(0.891228 -0.00752295 0)
(0.960765 -0.00969293 0)
(0.893404 -0.00583643 0)
(0.962877 -0.00755723 0)
(0.895167 -0.00439368 0)
(0.964488 -0.00592369 0)
(0.966263 -0.00428173 0)
(1.01051 0.0417748 0)
(1.00233 0.0175896 0)
(1.03644 0.0759145 0)
(1.01553 0.0514384 0)
(1.06815 0.098945 0)
(1.04104 0.0771162 0)
(1.09897 0.111431 0)
(1.07062 0.0932947 0)
(1.12569 0.115115 0)
(1.09824 0.101444 0)
(1.14652 0.112122 0)
(1.12248 0.10285 0)
(1.16168 0.10453 0)
(1.14228 0.0991455 0)
(1.1723 0.0929597 0)
(1.15798 0.0916466 0)
(1.17946 0.077968 0)
(1.17007 0.080341 0)
(1.18382 0.0614558 0)
(1.17933 0.066229 0)
(1.18595 0.0442017 0)
(1.18535 0.0504322 0)
(1.18716 0.0252035 0)
(1.18987 0.0326017 0)
(1.1887 0.00343555 0)
(1.19369 0.0121685 0)
(1.19169 -0.0217617 0)
(1.19757 -0.0113667 0)
(1.19697 -0.0511371 0)
(1.20228 -0.039141 0)
(1.20575 -0.0854249 0)
(1.2087 -0.0718449 0)
(1.2192 -0.125861 0)
(1.21792 -0.11048 0)
(1.23895 -0.174321 0)
(1.23089 -0.156838 0)
(1.26707 -0.232378 0)
(1.24969 -0.212919 0)
(1.30601 -0.301576 0)
(1.27608 -0.280442 0)
(1.35908 -0.383736 0)
(1.31293 -0.361738 0)
(1.43079 -0.480327 0)
(1.36417 -0.459228 0)
(1.52706 -0.591991 0)
(1.43528 -0.575008 0)
(1.65555 -0.717816 0)
(1.53374 -0.710365 0)
(1.82586 -0.853892 0)
(1.66992 -0.864781 0)
(2.0496 -0.992458 0)
(1.85693 -1.03441 0)
(2.3406 -1.11747 0)
(2.11516 -1.21217 0)
(2.69205 -1.19921 0)
(2.44108 -1.35978 0)
(3.0479 -1.19972 0)
(2.78069 -1.39383 0)
(3.35337 -1.0795 0)
(3.04736 -1.28447 0)
(3.56723 -0.828713 0)
(3.19397 -1.02215 0)
(3.66662 -0.499541 0)
(3.21529 -0.649502 0)
(3.67079 -0.166274 0)
(3.12498 -0.266102 0)
(3.62087 0.124656 0)
(3.02228 0.0682261 0)
(3.53496 0.348708 0)
(2.941 0.340946 0)
(3.44812 0.501818 0)
(2.88144 0.510352 0)
(3.38083 0.60288 0)
(2.84729 0.603609 0)
(3.32457 0.674321 0)
(2.84973 0.668261 0)
(3.26766 0.728397 0)
(2.87103 0.722896 0)
(3.20209 0.769236 0)
(2.89039 0.77232 0)
(3.12456 0.799473 0)
(2.89283 0.815271 0)
(3.03473 0.820798 0)
(2.87168 0.850394 0)
(2.93029 0.831901 0)
(2.82787 0.87518 0)
(2.80249 0.826845 0)
(2.75531 0.893924 0)
(2.65898 0.804169 0)
(2.65863 0.887128 0)
(2.50445 0.765882 0)
(2.5395 0.8592 0)
(2.34184 0.710422 0)
(2.4151 0.812588 0)
(2.17605 0.638408 0)
(2.27746 0.746232 0)
(2.01026 0.554296 0)
(2.13439 0.665872 0)
(1.84785 0.463487 0)
(1.99066 0.577296 0)
(1.69369 0.371702 0)
(1.85076 0.484327 0)
(1.55308 0.28423 0)
(1.71838 0.390901 0)
(1.42966 0.205045 0)
(1.597 0.301831 0)
(1.32512 0.13667 0)
(1.4889 0.221114 0)
(1.23964 0.0801487 0)
(1.39537 0.151123 0)
(1.17209 0.0354597 0)
(1.31682 0.0929042 0)
(1.12054 0.00184692 0)
(1.25282 0.0466429 0)
(1.08256 -0.0219407 0)
(1.20212 0.0116383 0)
(1.05571 -0.0373649 0)
(1.16309 -0.0133462 0)
(1.03777 -0.0461329 0)
(1.13381 -0.0297973 0)
(1.02648 -0.0495881 0)
(1.11278 -0.0393147 0)
(1.01979 -0.0493197 0)
(1.09776 -0.0434142 0)
(1.01658 -0.0468615 0)
(1.08776 -0.0441669 0)
(1.01581 -0.0428525 0)
(1.08135 -0.0423952 0)
(1.01663 -0.0379711 0)
(1.07759 -0.0389763 0)
(1.01848 -0.0328383 0)
(1.07578 -0.0347729 0)
(1.02088 -0.0278202 0)
(1.07532 -0.0302451 0)
(1.02347 -0.0231655 0)
(1.07574 -0.0257429 0)
(1.02603 -0.0190131 0)
(1.07668 -0.0215265 0)
(1.02842 -0.0153988 0)
(1.0779 -0.01773 0)
(1.03056 -0.0123243 0)
(1.07922 -0.0144012 0)
(1.03243 -0.00974112 0)
(1.0805 -0.0115662 0)
(1.03402 -0.00765626 0)
(1.08172 -0.00914349 0)
(1.03537 -0.00582048 0)
(1.08272 -0.00727174 0)
(1.08391 -0.00529514 0)
(1.00596 0.0281356 0)
(1.00138 0.0116329 0)
(1.02227 0.0528707 0)
(1.0094 0.0351214 0)
(1.04488 0.0713703 0)
(1.02622 0.0545108 0)
(1.07001 0.0832415 0)
(1.04793 0.0681687 0)
(1.09509 0.0891423 0)
(1.07089 0.0763628 0)
(1.11823 0.0899059 0)
(1.0933 0.0797021 0)
(1.13854 0.0863354 0)
(1.11411 0.0788386 0)
(1.15585 0.0790727 0)
(1.1328 0.0743431 0)
(1.16977 0.0685056 0)
(1.14892 0.0664165 0)
(1.18062 0.0550748 0)
(1.16232 0.0553759 0)
(1.18924 0.0390621 0)
(1.17314 0.0418196 0)
(1.19625 0.0202563 0)
(1.18194 0.025584 0)
(1.20226 -0.00177711 0)
(1.18917 0.00615956 0)
(1.20792 -0.0277397 0)
(1.1952 -0.0170206 0)
(1.21365 -0.0585959 0)
(1.20039 -0.0448711 0)
(1.22024 -0.0954939 0)
(1.20515 -0.0784388 0)
(1.22884 -0.139869 0)
(1.21014 -0.119075 0)
(1.24061 -0.193625 0)
(1.21623 -0.168613 0)
(1.25708 -0.259036 0)
(1.22451 -0.229389 0)
(1.28069 -0.338679 0)
(1.2366 -0.304052 0)
(1.31483 -0.4355 0)
(1.25503 -0.395878 0)
(1.36436 -0.552616 0)
(1.28358 -0.508755 0)
(1.43636 -0.692908 0)
(1.328 -0.647014 0)
(1.54112 -0.858236 0)
(1.39704 -0.81513 0)
(1.69327 -1.04817 0)
(1.50418 -1.01693 0)
(1.91249 -1.25929 0)
(1.66793 -1.25363 0)
(2.21703 -1.46869 0)
(1.91021 -1.51671 0)
(2.54297 -1.59154 0)
(2.1905 -1.68572 0)
(2.7939 -1.55703 0)
(2.34698 -1.64476 0)
(2.92896 -1.35936 0)
(2.20488 -1.41954 6.77673e-18)
(2.8858 -0.995692 0)
(1.90485 -0.978981 6.96869e-17)
(2.67269 -0.542203 0)
(1.5259 -0.436392 0)
(2.45652 -0.110088 0)
(1.14127 -0.0499352 0)
(2.32725 0.237701 0)
(1.15166 0.197497 -3.55864e-18)
(2.25805 0.459961 0)
(1.19689 0.410147 0)
(2.25643 0.575947 0)
(1.23107 0.511971 1.59822e-18)
(2.31561 0.643261 0)
(1.32448 0.544432 0)
(2.40251 0.697169 0)
(1.51016 0.581361 0)
(2.4977 0.748579 0)
(1.71439 0.627702 0)
(2.58345 0.801414 0)
(1.91083 0.686577 0)
(2.6425 0.85319 0)
(2.08116 0.756217 0)
(2.66395 0.895011 0)
(2.21321 0.828946 0)
(2.65166 0.928612 0)
(2.29474 0.887466 0)
(2.60871 0.948587 0)
(2.33626 0.93687 0)
(2.53835 0.939797 0)
(2.34032 0.957494 0)
(2.45071 0.904072 0)
(2.30991 0.946834 0)
(2.3493 0.847293 0)
(2.26109 0.914003 0)
(2.23587 0.774191 0)
(2.19188 0.85966 0)
(2.11555 0.690368 0)
(2.10921 0.786189 0)
(1.99439 0.600517 0)
(2.01534 0.698458 0)
(1.87611 0.506493 0)
(1.92108 0.602609 0)
(1.76289 0.411647 0)
(1.82511 0.504125 0)
(1.65682 0.320907 0)
(1.73148 0.407901 0)
(1.55952 0.238124 0)
(1.64274 0.318414 0)
(1.47271 0.165869 0)
(1.56088 0.23793 0)
(1.39758 0.105565 0)
(1.48724 0.168029 0)
(1.33444 0.0575108 0)
(1.4225 0.109789 0)
(1.28271 0.0210302 0)
(1.3669 0.0633709 0)
(1.24126 -0.00517609 0)
(1.32012 0.0281 0)
(1.20884 -0.0226196 0)
(1.28156 0.0026246 0)
(1.18415 -0.0329811 0)
(1.25044 -0.0146233 0)
(1.16591 -0.0381446 0)
(1.22597 -0.0251773 0)
(1.15262 -0.039628 0)
(1.20711 -0.030875 0)
(1.14321 -0.0385147 0)
(1.19284 -0.0329895 0)
(1.13682 -0.0357976 0)
(1.18228 -0.0325887 0)
(1.1327 -0.0321983 0)
(1.17467 -0.030648 0)
(1.13025 -0.0281827 0)
(1.16937 -0.0277933 0)
(1.12901 -0.024121 0)
(1.16582 -0.0245044 0)
(1.1286 -0.0202652 0)
(1.16359 -0.0211226 0)
(1.12874 -0.0167561 0)
(1.16231 -0.0178661 0)
(1.12919 -0.0136659 0)
(1.16168 -0.0148538 0)
(1.12981 -0.0109885 0)
(1.16148 -0.01218 0)
(1.13047 -0.00877293 0)
(1.16155 -0.00980447 0)
(1.13112 -0.00675531 0)
(1.16175 -0.00792038 0)
(1.16213 -0.00584065 0)
(1.00367 0.0193402 0)
(1.00088 0.00796155 0)
(1.01441 0.0371277 0)
(1.00612 0.0243798 0)
(1.03027 0.0513078 0)
(1.01763 0.0386517 0)
(1.0491 0.0611542 0)
(1.03327 0.0493413 0)
(1.06919 0.066774 0)
(1.05088 0.0562717 0)
(1.08925 0.0685076 0)
(1.0691 0.0596472 0)
(1.10837 0.0667421 0)
(1.08709 0.059716 0)
(1.12597 0.061726 0)
(1.1042 0.0567402 0)
(1.14153 0.0536365 0)
(1.11987 0.0508624 0)
(1.15472 0.0426765 0)
(1.13364 0.0421782 0)
(1.16575 0.0288789 0)
(1.14533 0.0307926 0)
(1.17479 0.0119737 0)
(1.15494 0.016545 0)
(1.18198 -0.0085583 0)
(1.16248 -0.00102984 0)
(1.18753 -0.0334833 0)
(1.16794 -0.0225732 0)
(1.19164 -0.063822 0)
(1.17133 -0.0489781 0)
(1.1946 -0.100874 0)
(1.17266 -0.0813955 0)
(1.19688 -0.146364 0)
(1.17203 -0.121355 0)
(1.19917 -0.202527 0)
(1.16969 -0.1709 0)
(1.20248 -0.272123 0)
(1.16608 -0.232698 0)
(1.20855 -0.358597 0)
(1.16206 -0.310126 0)
(1.22021 -0.466266 0)
(1.15922 -0.407541 0)
(1.24201 -0.600394 0)
(1.16046 -0.530555 0)
(1.28129 -0.767151 0)
(1.17072 -0.686295 0)
(1.34978 -0.973322 0)
(1.19849 -0.883619 0)
(1.46558 -1.22531 0)
(1.25749 -1.13273 1.91704e-32)
(1.65089 -1.52247 0)
(1.36613 -1.43894 -1.78493e-32)
(1.89564 -1.76149 0)
(1.52028 -1.76146 0)
(2.02571 -1.79054 0)
(1.55471 -1.81579 0)
(1.77222 -1.49517 6.77673e-18)
(1.1475 -1.39128 0)
(1.21761 -0.929945 7.64636e-17)
(0.468971 -0.667961 6.77673e-18)
(0.656463 -0.347296 6.96869e-17)
(0.441645 -0.99224 6.96869e-17)
(0.00663271 -0.0645858 0)
(0.135925 -1.21258 0)
(-0.177897 -0.00728862 -3.55864e-18)
(-0.141878 -1.29421 0)
(-0.0215648 0.166205 -3.55864e-18)
(-0.0394818 -1.43049 -3.55864e-18)
(0.0778384 0.348336 1.59822e-18)
(0.0514301 -1.75798 0)
(0.244526 0.418663 1.59822e-18)
(-0.251224 0.210644 6.53191e-18)
(0.52713 0.459636 0)
(-0.115077 0.261828 0)
(0.8378 0.501144 0)
(0.0826349 0.270691 0)
(1.13775 0.56145 0)
(0.370501 0.327751 0)
(1.41534 0.638294 0)
(0.673452 0.408991 0)
(1.65516 0.727539 0)
(0.964245 0.516398 0)
(1.8445 0.816119 0)
(1.22902 0.639602 0)
(1.97776 0.890749 0)
(1.44288 0.754211 0)
(2.06395 0.940287 0)
(1.61025 0.850673 0)
(2.10959 0.959038 0)
(1.72886 0.911852 0)
(2.12002 0.953402 0)
(1.80684 0.936407 0)
(2.10258 0.923532 0)
(1.8477 0.931439 0)
(2.06517 0.868311 0)
(1.86453 0.897073 0)
(2.00948 0.791881 0)
(1.86111 0.841885 0)
(1.94282 0.699667 0)
(1.83782 0.765112 0)
(1.8707 0.601016 0)
(1.80288 0.674734 0)
(1.79483 0.502231 0)
(1.75726 0.579994 0)
(1.71842 0.40744 0)
(1.70561 0.484311 0)
(1.64473 0.320276 0)
(1.65068 0.392106 0)
(1.57578 0.2422 0)
(1.59518 0.306874 0)
(1.5124 0.174246 0)
(1.54172 0.231416 0)
(1.45508 0.117351 0)
(1.49093 0.167099 0)
(1.40439 0.0717637 0)
(1.44401 0.114063 0)
(1.36046 0.0368418 0)
(1.40177 0.0720351 0)
(1.32319 0.0113317 0)
(1.36458 0.0398927 0)
(1.29227 -0.0062724 0)
(1.33249 0.0162928 0)
(1.26725 -0.0175354 0)
(1.30545 -0.000150177 0)
(1.24739 -0.0239762 0)
(1.28316 -0.0110225 0)
(1.23193 -0.0268928 0)
(1.26511 -0.0175284 0)
(1.22017 -0.0273554 0)
(1.25083 -0.0208224 0)
(1.21138 -0.0262215 0)
(1.23973 -0.0218647 0)
(1.20498 -0.0241247 0)
(1.23129 -0.0213921 0)
(1.20044 -0.0215238 0)
(1.22499 -0.0199667 0)
(1.19733 -0.0187388 0)
(1.22038 -0.018007 0)
(1.19527 -0.0159764 0)
(1.2171 -0.0158106 0)
(1.19399 -0.0133798 0)
(1.2148 -0.0135678 0)
(1.19324 -0.0110081 0)
(1.21327 -0.0114348 0)
(1.19286 -0.00896433 0)
(1.21224 -0.00942316 0)
(1.19271 -0.0070197 0)
(1.21164 -0.00776896 0)
(1.21115 -0.00583881 0)
(1.00247 0.0134418 0)
(1.00061 0.00549652 0)
(1.0099 0.0261697 0)
(1.00426 0.0169475 0)
(1.0213 0.0367431 0)
(1.01247 0.0272531 0)
(1.03535 0.0444098 0)
(1.024 0.0352901 0)
(1.05092 0.0490513 0)
(1.03744 0.0407017 0)
(1.06706 0.0507579 0)
(1.05183 0.0435011 0)
(1.08301 0.0496575 0)
(1.06644 0.0437665 0)
(1.09818 0.0458583 0)
(1.08068 0.0415758 0)
(1.11207 0.0394285 0)
(1.094 0.0369762 0)
(1.12426 0.030397 0)
(1.10593 0.0299824 0)
(1.13452 0.0186537 0)
(1.1161 0.0205341 0)
(1.14265 0.00385399 0)
(1.12421 0.00841211 0)
(1.14845 -0.0145682 0)
(1.12994 -0.00682485 0)
(1.15172 -0.0373919 0)
(1.13298 -0.0258412 0)
(1.15225 -0.0656537 0)
(1.13294 -0.0495105 0)
(1.14986 -0.100725 0)
(1.12942 -0.079005 0)
(1.14441 -0.144451 0)
(1.12198 -0.115903 0)
(1.13584 -0.199298 0)
(1.11016 -0.162336 0)
(1.12432 -0.268515 0)
(1.09354 -0.22117 0)
(1.11044 -0.356385 0)
(1.07187 -0.296254 0)
(1.09573 -0.46862 0)
(1.0453 -0.392827 0)
(1.08322 -0.612819 0)
(1.01482 -0.518045 0)
(1.07865 -0.799017 0)
(0.983042 -0.681718 0)
(1.09216 -1.04006 1.91704e-32)
(0.955367 -0.897132 0)
(1.13923 -1.34602 1.63603e-33)
(0.941355 -1.1798 1.91704e-32)
(1.2233 -1.67928 -1.78493e-32)
(0.952998 -1.52301 -1.78493e-32)
(1.20898 -1.81501 0)
(0.895906 -1.74714 0)
(0.699628 -1.36191 0)
(0.428599 -1.30643 4.02226e-17)
(0.117278 -0.57385 0)
(-0.285945 -0.444054 0)
(-0.434068 -0.105652 0)
(-0.292925 -0.272946 0)
(-0.104502 0 0)
(0 -0.0970014 0)
(-0.0148861 0 0)
(0 -0.0260669 0)
(-0.013805 0 0)
(0 -0.0101634 0)
(-0.025117 0 0)
(0 -0.000365471 0)
(0.10357 0.0222002 4.93368e-18)
(0 0.00749293 0)
(-0.639401 0.0799718 4.93368e-18)
(-0.350372 -0.546992 4.93368e-18)
(-0.60911 0.11962 0)
(-0.769644 0.0509646 1.65349e-17)
(-0.380703 0.144891 0)
(-0.707061 0.0422841 3.61243e-16)
(-0.0813546 0.207171 0)
(-0.540827 0.0284028 0)
(0.236549 0.306999 0)
(-0.292474 0.0910877 0)
(0.546551 0.436767 0)
(-0.0183754 0.206396 0)
(0.828898 0.577951 0)
(0.262734 0.357254 0)
(1.07235 0.710502 0)
(0.518519 0.510761 0)
(1.27086 0.817484 0)
(0.749773 0.652156 0)
(1.42193 0.884607 0)
(0.947039 0.760783 0)
(1.53158 0.9109 0)
(1.10996 0.826765 0)
(1.60908 0.903625 0)
(1.23878 0.853934 0)
(1.66023 0.870883 0)
(1.33972 0.845928 0)
(1.68966 0.815665 0)
(1.41797 0.812451 0)
(1.69872 0.740501 0)
(1.47515 0.756049 0)
(1.69034 0.653448 0)
(1.51087 0.683115 0)
(1.66956 0.561629 0)
(1.52959 0.600781 0)
(1.63904 0.469277 0)
(1.53425 0.514829 0)
(1.60202 0.379821 0)
(1.52735 0.429127 0)
(1.56179 0.297538 0)
(1.51138 0.3471 0)
(1.5207 0.225743 0)
(1.48973 0.272502 0)
(1.48017 0.165135 0)
(1.46421 0.207631 0)
(1.44154 0.115432 0)
(1.43694 0.152698 0)
(1.40593 0.0759878 0)
(1.40951 0.107641 0)
(1.37389 0.0455582 0)
(1.38317 0.0719354 0)
(1.34566 0.022902 0)
(1.35874 0.0445185 0)
(1.32138 0.00671619 0)
(1.33678 0.0241319 0)
(1.30089 -0.00428742 0)
(1.31754 0.00946736 0)
(1.284 -0.0112526 0)
(1.30109 -0.000641113 0)
(1.2704 -0.0151826 0)
(1.28734 -0.00722113 0)
(1.25965 -0.0169285 0)
(1.27609 -0.0111135 0)
(1.2513 -0.0171648 0)
(1.26705 -0.013046 0)
(1.24494 -0.0164128 0)
(1.2599 -0.0136001 0)
(1.24016 -0.0150646 0)
(1.25433 -0.0132332 0)
(1.23664 -0.0134001 0)
(1.25007 -0.0122913 0)
(1.23409 -0.0116257 0)
(1.24684 -0.0110197 0)
(1.23228 -0.00985449 0)
(1.24445 -0.00962111 0)
(1.23102 -0.00823335 0)
(1.24263 -0.00816128 0)
(1.23015 -0.00659575 0)
(1.24144 -0.00689591 0)
(1.24015 -0.00530785 0)
(1.00176 0.00928101 0)
(1.00045 0.00373208 0)
(1.00715 0.0182356 0)
(1.00312 0.0115624 0)
(1.01563 0.0258905 0)
(1.00924 0.0187779 0)
(1.02635 0.0315996 0)
(1.01804 0.0245645 0)
(1.0385 0.0351418 0)
(1.02853 0.0285547 0)
(1.05134 0.0364935 0)
(1.03998 0.0306586 0)
(1.06424 0.0356752 0)
(1.05177 0.0308724 0)
(1.07662 0.0327007 0)
(1.06337 0.0291927 0)
(1.08799 0.0275633 0)
(1.0742 0.0256079 0)
(1.09789 0.0202046 0)
(1.08378 0.0200825 0)
(1.1059 0.0104603 0)
(1.09166 0.0125238 0)
(1.11162 -0.00200665 0)
(1.09737 0.0026951 0)
(1.1146 -0.0177285 0)
(1.1004 -0.00980506 0)
(1.11433 -0.037445 0)
(1.1002 -0.0255689 0)
(1.11021 -0.0621582 0)
(1.09606 -0.0453914 0)
(1.10156 -0.0932205 0)
(1.08719 -0.070357 0)
(1.0876 -0.132472 0)
(1.0726 -0.101944 0)
(1.06745 -0.182421 0)
(1.05115 -0.142183 0)
(1.04016 -0.246503 0)
(1.02143 -0.193884 0)
(1.00486 -0.329467 0)
(0.981862 -0.260953 0)
(0.96093 -0.437935 0)
(0.930673 -0.348892 0)
(0.90848 -0.581262 0)
(0.866121 -0.465593 0)
(0.849223 -0.772699 0)
(0.786819 -0.622461 0)
(0.787775 -1.02863 0)
(0.692224 -0.835678 0)
(0.728612 -1.34513 0)
(0.586468 -1.12063 3.54845e-33)
(0.620505 -1.57947 0)
(0.446559 -1.4149 -3.52571e-33)
(0.193899 -1.22475 4.02226e-17)
(0.0862518 -1.32053 1.77276e-17)
(-0.537071 -0.457504 4.02226e-17)
(-0.546783 -0.617323 6.56658e-17)
(0.183399 -0.0545371 0)
(-0.431064 0.330835 0)
(0.0362294 0 0)
(0 -0.0539475 0)
(0.015024 0 0)
(0 -0.0154657 0)
(0.00503299 0 0)
(0 -0.00507902 0)
(0.00733444 0 0)
(0 0.00192962 0)
(0.000275825 0 0)
(0 -0.00207971 0)
(-0.0703749 0 0)
(0 -0.00282825 0)
(-0.173737 -0.00174096 1.65349e-17)
(0 -0.00278661 0)
(-0.931486 -0.0298314 3.77778e-16)
(-0.470149 -0.423874 1.65349e-17)
(-0.913111 -0.079322 3.61243e-16)
(-0.901296 -0.047548 3.70282e-16)
(-0.749939 -0.0814609 0)
(-0.913437 -0.13477 8.22213e-17)
(-0.532253 -0.00268975 0)
(-0.809736 -0.126598 0)
(-0.288053 0.135493 0)
(-0.651662 -0.0378042 0)
(-0.0443276 0.298588 0)
(-0.453687 0.113529 0)
(0.192191 0.458513 0)
(-0.250892 0.274243 0)
(0.4195 0.598845 0)
(-0.0414699 0.424846 0)
(0.628847 0.704867 0)
(0.167143 0.551436 0)
(0.812162 0.770632 0)
(0.366228 0.64345 0)
(0.967573 0.796798 0)
(0.550072 0.698523 0)
(1.09682 0.788935 0)
(0.714933 0.716684 0)