/*--------------------------------*- C++ -*----------------------------------*\
| =========                 |                                                 |
| \\      /  F ield         | OpenFOAM: The Open Source CFD Toolbox           |
|  \\    /   O peration     | Version:  2206                                  |
|   \\  /    A nd           | Website:  www.openfoam.com                      |
|    \\/     M anipulation  |                                                 |
\*---------------------------------------------------------------------------*/
FoamFile
{
    version     2.0;
    format      ascii;
    arch        "LSB;label=32;scalar=64";
    class       volScalarField;
    location    "0.4";
    object      k;
}
// * * * * * * * * * * * * * * * * * * * * * * * * * * * * * * * * * * * * * //

dimensions      [0 2 -2 0 0 0 0];

internalField   nonuniform List<scalar> 
1875
(
8.55223e-05
5.31856e-05
3.7757e-05
2.95105e-05
2.49345e-05
2.26341e-05
2.17036e-05
2.14873e-05
2.15677e-05
2.17269e-05
2.18754e-05
2.19911e-05
2.20773e-05
2.2142e-05
2.21946e-05
2.22444e-05
2.22989e-05
2.23634e-05
2.24426e-05
2.2541e-05
2.2663e-05
2.2813e-05
2.29952e-05
2.32122e-05
2.34655e-05
2.37558e-05
2.40843e-05
2.44549e-05
2.48758e-05
2.53594e-05
2.59192e-05
2.65623e-05
2.72743e-05
2.80097e-05
2.86778e-05
2.90908e-05
2.91608e-05
2.88922e-05
2.83368e-05
2.75853e-05
2.67448e-05
2.59127e-05
2.51549e-05
2.45037e-05
2.39668e-05
2.35367e-05
2.31985e-05
2.29354e-05
2.27319e-05
2.25751e-05
2.24545e-05
2.2362e-05
2.2291e-05
2.22366e-05
2.21949e-05
2.2163e-05
2.21387e-05
2.21201e-05
2.21059e-05
2.20951e-05
2.20869e-05
2.20806e-05
2.20759e-05
2.20723e-05
2.20695e-05
2.20675e-05
2.20659e-05
2.20647e-05
2.20639e-05
2.20632e-05
2.20627e-05
2.20624e-05
2.20622e-05
2.20617e-05
2.20605e-05
8.5137e-05
5.37247e-05
3.78713e-05
2.89266e-05
2.36828e-05
2.05806e-05
1.88914e-05
1.81237e-05
1.79081e-05
1.79813e-05
1.81703e-05
1.83781e-05
1.85594e-05
1.86992e-05
1.87979e-05
1.88601e-05
1.8898e-05
1.89211e-05
1.89359e-05
1.89467e-05
1.89562e-05
1.89651e-05
1.89717e-05
1.89714e-05
1.89556e-05
1.89126e-05
1.88302e-05
1.86991e-05
1.8518e-05
1.82994e-05
1.80736e-05
1.78882e-05
1.78007e-05
1.78608e-05
1.80854e-05
1.84283e-05
1.87866e-05
1.91197e-05
1.93844e-05
1.95534e-05
1.96247e-05
1.96166e-05
1.9558e-05
1.94747e-05
1.93856e-05
1.93019e-05
1.92284e-05
1.9166e-05
1.9114e-05
1.90711e-05
1.90359e-05
1.90074e-05
1.89845e-05
1.89661e-05
1.89514e-05
1.89398e-05
1.89307e-05
1.89236e-05
1.8918e-05
1.89137e-05
1.89103e-05
1.89077e-05
1.89057e-05
1.89041e-05
1.89029e-05
1.8902e-05
1.89013e-05
1.89007e-05
1.89003e-05
1.89e-05
1.88998e-05
1.88996e-05
1.88993e-05
1.88981e-05
1.88917e-05
8.50305e-05
5.35983e-05
3.78737e-05
2.88179e-05
2.31888e-05
1.95867e-05
1.7319e-05
1.59676e-05
1.52483e-05
1.49532e-05
1.49189e-05
1.50232e-05
1.51825e-05
1.53453e-05
1.54865e-05
1.55957e-05
1.567e-05
1.57152e-05
1.57377e-05
1.57428e-05
1.57334e-05
1.57094e-05
1.5666e-05
1.55923e-05
1.54695e-05
1.52728e-05
1.49747e-05
1.45512e-05
1.39914e-05
1.33077e-05
1.25451e-05
1.17832e-05
1.1124e-05
1.06705e-05
1.05016e-05
1.0639e-05
1.10082e-05
1.15543e-05
1.22056e-05
1.28846e-05
1.35266e-05
1.40897e-05
1.4556e-05
1.49259e-05
1.52092e-05
1.54196e-05
1.55714e-05
1.56775e-05
1.57489e-05
1.5795e-05
1.58233e-05
1.58398e-05
1.58486e-05
1.58526e-05
1.5854e-05
1.58539e-05
1.5853e-05
1.58519e-05
1.58508e-05
1.58498e-05
1.5849e-05
1.58483e-05
1.58477e-05
1.58472e-05
1.58468e-05
1.58465e-05
1.58463e-05
1.58461e-05
1.58459e-05
1.58458e-05
1.58457e-05
1.58456e-05
1.58454e-05
1.58442e-05
1.58387e-05
8.49823e-05
5.33386e-05
3.75994e-05
2.85818e-05
2.29249e-05
1.91992e-05
1.6713e-05
1.50864e-05
1.40844e-05
1.35367e-05
1.33057e-05
1.32752e-05
1.33583e-05
1.34912e-05
1.36323e-05
1.37599e-05
1.38623e-05
1.39369e-05
1.39859e-05
1.40121e-05
1.40166e-05
1.39953e-05
1.39364e-05
1.38172e-05
1.36027e-05
1.32492e-05
1.27114e-05
1.19555e-05
1.09741e-05
9.80187e-06
8.52576e-06
7.27753e-06
6.19593e-06
5.39008e-06
4.93645e-06
4.86699e-06
5.15973e-06
5.75647e-06
6.58786e-06
7.56932e-06
8.6145e-06
9.64365e-06
1.05949e-05
1.14292e-05
1.21281e-05
1.26901e-05
1.31251e-05
1.34496e-05
1.36835e-05
1.38464e-05
1.39561e-05
1.40278e-05
1.40731e-05
1.4101e-05
1.41176e-05
1.41272e-05
1.41325e-05
1.41354e-05
1.41369e-05
1.41375e-05
1.41378e-05
1.41379e-05
1.41379e-05
1.41378e-05
1.41377e-05
1.41377e-05
1.41376e-05
1.41376e-05
1.41375e-05
1.41375e-05
1.41375e-05
1.41374e-05
1.41372e-05
1.41361e-05
1.41307e-05
8.49621e-05
5.318e-05
3.73337e-05
2.82939e-05
2.26482e-05
1.89237e-05
1.64103e-05
1.47292e-05
1.36514e-05
1.30168e-05
1.27012e-05
1.26026e-05
1.26387e-05
1.27459e-05
1.28784e-05
1.30078e-05
1.31201e-05
1.32086e-05
1.3272e-05
1.33096e-05
1.33169e-05
1.32808e-05
1.31756e-05
1.29586e-05
1.25737e-05
1.19564e-05
1.10562e-05
9.85518e-06
8.38876e-06
6.75991e-06
5.13397e-06
3.69655e-06
2.57434e-06
1.80087e-06
1.35212e-06
1.20111e-06
1.35634e-06
1.80371e-06
2.52003e-06
3.47411e-06
4.61751e-06
5.87709e-06
7.16868e-06
8.41164e-06
9.54082e-06
1.05141e-05
1.13135e-05
1.19411e-05
1.24138e-05
1.27574e-05
1.29977e-05
1.31601e-05
1.32665e-05
1.33343e-05
1.33763e-05
1.34017e-05
1.34167e-05
1.34253e-05
1.34302e-05
1.3433e-05
1.34344e-05
1.34352e-05
1.34356e-05
1.34358e-05
1.3436e-05
1.3436e-05
1.3436e-05
1.3436e-05
1.3436e-05
1.3436e-05
1.3436e-05
1.3436e-05
1.34358e-05
1.34347e-05
1.34289e-05
8.49536e-05
5.30995e-05
3.71645e-05
2.80708e-05
2.24096e-05
1.86927e-05
1.61951e-05
1.45272e-05
1.34547e-05
1.28172e-05
1.24938e-05
1.23858e-05
1.24126e-05
1.25122e-05
1.26404e-05
1.27686e-05
1.28815e-05
1.29722e-05
1.30371e-05
1.30707e-05
1.30594e-05
1.29751e-05
1.27699e-05
1.23768e-05
1.17205e-05
1.0738e-05
9.40584e-06
7.76558e-06
5.93926e-06
4.12382e-06
2.54815e-06
1.37865e-06
6.54978e-07
2.77546e-07
1.14114e-07
6.51253e-08
9.51885e-08
2.31246e-07
5.44727e-07
1.09902e-06
1.93105e-06
3.02507e-06
4.32087e-06
5.72696e-06
7.13917e-06
8.46275e-06
9.6288e-06
1.06003e-05
1.13698e-05
1.19517e-05
1.23737e-05
1.26681e-05
1.28667e-05
1.29964e-05
1.30789e-05
1.313e-05
1.31609e-05
1.31792e-05
1.31897e-05
1.31957e-05
1.31991e-05
1.3201e-05
1.3202e-05
1.32025e-05
1.32028e-05
1.3203e-05
1.32031e-05
1.32031e-05
1.32031e-05
1.32032e-05
1.32032e-05
1.32031e-05
1.32029e-05
1.32018e-05
1.31956e-05
8.49496e-05
5.30596e-05
3.70706e-05
2.79316e-05
2.22449e-05
1.85231e-05
1.60367e-05
1.43893e-05
1.33401e-05
1.27243e-05
1.24169e-05
1.23188e-05
1.23506e-05
1.2452e-05
1.25804e-05
1.27083e-05
1.28202e-05
1.29083e-05
1.29661e-05
1.2981e-05
1.2926e-05
1.27529e-05
1.23901e-05
1.17514e-05
1.07624e-05
9.39195e-06
7.6812e-06
5.76046e-06
3.84179e-06
2.17988e-06
9.85261e-07
3.13887e-07
7.26453e-08
1.94815e-08
2.66094e-09
1.02778e-09
2.19182e-09
1.0259e-08
4.64498e-08
1.96826e-07
5.80731e-07
1.27513e-06
2.28966e-06
3.57105e-06
5.02214e-06
6.52158e-06
7.953e-06
9.22788e-06
1.02956e-05
1.11422e-05
1.17813e-05
1.2243e-05
1.25637e-05
1.27788e-05
1.29184e-05
1.30064e-05
1.30605e-05
1.3093e-05
1.31121e-05
1.31231e-05
1.31293e-05
1.31328e-05
1.31347e-05
1.31358e-05
1.31363e-05
1.31366e-05
1.31368e-05
1.31369e-05
1.3137e-05
1.3137e-05
1.3137e-05
1.3137e-05
1.31368e-05
1.31356e-05
1.31292e-05
8.49477e-05
5.30393e-05
3.70195e-05
2.78506e-05
2.21427e-05
1.84122e-05
1.59295e-05
1.42956e-05
1.32655e-05
1.26699e-05
1.23804e-05
1.22956e-05
1.2336e-05
1.24419e-05
1.25717e-05
1.2699e-05
1.28085e-05
1.28908e-05
1.29349e-05
1.29178e-05
1.27958e-05
1.24981e-05
1.19339e-05
1.1015e-05
9.693e-06
7.99544e-06
6.04501e-06
4.05253e-06
2.28157e-06
9.79108e-07
2.61065e-07
3.60471e-08
3.69814e-08
0.00015
0.00015
0.00015
0.00015
0.00015
1.20126e-09
1.16739e-08
8.98733e-08
3.95736e-07
1.03802e-06
2.03696e-06
3.337e-06
4.82957e-06
6.38031e-06
7.86137e-06
9.17657e-06
1.02722e-05
1.11349e-05
1.1781e-05
1.22439e-05
1.25625e-05
1.27744e-05
1.29108e-05
1.29961e-05
1.30481e-05
1.30791e-05
1.30972e-05
1.31075e-05
1.31133e-05
1.31165e-05
1.31183e-05
1.31192e-05
1.31197e-05
1.312e-05
1.31201e-05
1.31202e-05
1.31203e-05
1.31203e-05
1.31203e-05
1.31201e-05
1.31189e-05
1.31124e-05
8.49467e-05
5.30281e-05
3.69906e-05
2.78032e-05
2.2081e-05
1.83429e-05
1.58606e-05
1.42343e-05
1.32167e-05
1.26354e-05
1.23593e-05
1.22852e-05
1.23327e-05
1.24425e-05
1.25737e-05
1.27002e-05
1.28064e-05
1.28805e-05
1.29048e-05
1.28439e-05
1.26357e-05
1.21909e-05
1.14103e-05
1.02208e-05
8.61866e-06
6.69948e-06
4.65726e-06
2.75214e-06
1.25453e-06
3.59233e-07
7.58251e-08
3.82611e-07
0.00015
0.00015
0.00015
0.00015
0.00015
0.00015
0.00015
1.41659e-10
7.17548e-09
8.22607e-08
4.00886e-07
1.0781e-06
2.12974e-06
3.48657e-06
5.02507e-06
6.60129e-06
8.08501e-06
9.38346e-06
1.04496e-05
1.12773e-05
1.18888e-05
1.23212e-05
1.26153e-05
1.28085e-05
1.29315e-05
1.30077e-05
1.30538e-05
1.30809e-05
1.30966e-05
1.31056e-05
1.31105e-05
1.31133e-05
1.31148e-05
1.31155e-05
1.3116e-05
1.31162e-05
1.31163e-05
1.31164e-05
1.31164e-05
1.31164e-05
1.31162e-05
1.31151e-05
1.31086e-05
8.49461e-05
5.30216e-05
3.69735e-05
2.77749e-05
2.20435e-05
1.83001e-05
1.58173e-05
1.41952e-05
1.31853e-05
1.26132e-05
1.23461e-05
1.22793e-05
1.23318e-05
1.24444e-05
1.25763e-05
1.27018e-05
1.28042e-05
1.2868e-05
1.28681e-05
1.2756e-05
1.24536e-05
1.18596e-05
1.08779e-05
9.46215e-06
7.65838e-06
5.62185e-06
3.59553e-06
1.85814e-06
6.6235e-07
1.7554e-07
2.26037e-06
0.00015
0.00015
0.00015
0.00015
0.00015
0.00015
0.00015
0.00015
0.00015
3.9882e-10
1.29521e-08
1.36469e-07
5.43407e-07
1.33059e-06
2.49009e-06
3.93073e-06
5.51324e-06
7.08922e-06
8.53467e-06
9.76955e-06
1.07611e-05
1.15152e-05
1.20618e-05
1.24417e-05
1.2696e-05
1.28606e-05
1.29641e-05
1.30274e-05
1.30652e-05
1.30873e-05
1.30999e-05
1.31071e-05
1.3111e-05
1.31131e-05
1.31143e-05
1.31149e-05
1.31153e-05
1.31154e-05
1.31155e-05
1.31156e-05
1.31156e-05
1.31154e-05
1.31142e-05
1.31077e-05
8.49457e-05
5.30178e-05
3.69635e-05
2.77581e-05
2.20211e-05
1.82743e-05
1.57908e-05
1.4171e-05
1.31656e-05
1.25993e-05
1.23378e-05
1.22756e-05
1.23314e-05
1.24458e-05
1.25781e-05
1.27024e-05
1.28006e-05
1.28535e-05
1.28284e-05
1.26657e-05
1.22755e-05
1.15516e-05
1.0408e-05
8.82747e-06
6.89899e-06
4.82146e-06
2.86541e-06
1.31164e-06
4.31704e-07
4.64466e-07
0.00015
0.00015
0.00015
0.00015
0.00015
0.00015
0.00015
0.00015
0.00015
0.00015
0.00015
1.78137e-09
3.74752e-08
2.60689e-07
8.27672e-07
1.78971e-06
3.09803e-06
4.63342e-06
6.24414e-06
7.78547e-06
9.14943e-06
1.02775e-05
1.1157e-05
1.18082e-05
1.22691e-05
1.25826e-05
1.27883e-05
1.29193e-05
1.30002e-05
1.30491e-05
1.30779e-05
1.30945e-05
1.3104e-05
1.31092e-05
1.31121e-05
1.31137e-05
1.31145e-05
1.3115e-05
1.31152e-05
1.31153e-05
1.31154e-05
1.31154e-05
1.31152e-05
1.31141e-05
1.31076e-05
8.49456e-05
5.30158e-05
3.69581e-05
2.77491e-05
2.2009e-05
1.82603e-05
1.57765e-05
1.41578e-05
1.3155e-05
1.25919e-05
1.23338e-05
1.22744e-05
1.23321e-05
1.24474e-05
1.25799e-05
1.2703e-05
1.27975e-05
1.28412e-05
1.27953e-05
1.25929e-05
1.21376e-05
1.13226e-05
1.00722e-05
8.39117e-06
6.39692e-06
4.31501e-06
2.43205e-06
1.02324e-06
2.92053e-07
9.62914e-08
0.00015
0.00015
0.00015
0.00015
0.00015
0.00015
0.00015
0.00015
0.00015
0.00015
0.00015
2.52017e-10
9.4797e-09
1.26227e-07
5.39807e-07
1.35174e-06
2.54504e-06
4.02051e-06
5.63181e-06
7.2247e-06
8.67263e-06
9.89711e-06
1.08698e-05
1.16015e-05
1.21263e-05
1.24875e-05
1.2727e-05
1.28808e-05
1.29768e-05
1.30351e-05
1.30697e-05
1.30898e-05
1.31013e-05
1.31077e-05
1.31113e-05
1.31132e-05
1.31143e-05
1.31148e-05
1.31151e-05
1.31153e-05
1.31153e-05
1.31154e-05
1.31152e-05
1.3114e-05
1.31075e-05
8.49455e-05
5.30151e-05
3.69563e-05
2.77462e-05
2.20052e-05
1.82559e-05
1.57723e-05
1.41546e-05
1.31532e-05
1.2592e-05
1.23355e-05
1.22775e-05
1.23361e-05
1.24517e-05
1.25838e-05
1.27059e-05
1.27982e-05
1.28372e-05
1.2782e-05
1.25631e-05
1.20824e-05
1.12337e-05
9.94605e-06
8.23204e-06
6.21811e-06
4.13587e-06
2.27469e-06
9.16132e-07
3.59188e-07
3.81533e-06
0.00015
0.00015
0.00015
0.00015
0.00015
0.00015
0.00015
0.00015
0.00015
0.00015
0.00015
8.79437e-11
4.44514e-09
8.38589e-08
4.30269e-07
1.17545e-06
2.31714e-06
3.76263e-06
5.36791e-06
6.97641e-06
8.45538e-06
9.71869e-06
1.07311e-05
1.14988e-05
1.20535e-05
1.24377e-05
1.26941e-05
1.28597e-05
1.29636e-05
1.30271e-05
1.3065e-05
1.30871e-05
1.30998e-05
1.31069e-05
1.31108e-05
1.3113e-05
1.31141e-05
1.31148e-05
1.31151e-05
1.31153e-05
1.31153e-05
1.31154e-05
1.31152e-05
1.3114e-05
1.31075e-05
8.49456e-05
5.30158e-05
3.69581e-05
2.77492e-05
2.20092e-05
1.8261e-05
1.57783e-05
1.41613e-05
1.31607e-05
1.26e-05
1.23439e-05
1.2286e-05
1.23443e-05
1.24593e-05
1.25906e-05
1.27121e-05
1.28044e-05
1.28453e-05
1.27966e-05
1.25918e-05
1.21356e-05
1.13221e-05
1.00762e-05
8.40126e-06
6.41297e-06
4.33532e-06
2.45602e-06
1.05837e-06
5.07754e-07
1.06968e-07
0.00015
0.00015
0.00015
0.00015
0.00015
0.00015
0.00015
0.00015
0.00015
0.00015
0.00015
2.26231e-10
8.81647e-09
1.19832e-07
5.21981e-07
1.3213e-06
2.50099e-06
3.96121e-06
5.55778e-06
7.14025e-06
8.58481e-06
9.81333e-06
1.07958e-05
1.15403e-05
1.20786e-05
1.24521e-05
1.2702e-05
1.28638e-05
1.29656e-05
1.3028e-05
1.30654e-05
1.30873e-05
1.30999e-05
1.3107e-05
1.31109e-05
1.3113e-05
1.31142e-05
1.31148e-05
1.31151e-05
1.31153e-05
1.31154e-05
1.31154e-05
1.31152e-05
1.3114e-05
1.31075e-05
8.49457e-05
5.30178e-05
3.69635e-05
2.77582e-05
2.20216e-05
1.82758e-05
1.57945e-05
1.41779e-05
1.31766e-05
1.26148e-05
1.23572e-05
1.22977e-05
1.23545e-05
1.24682e-05
1.25984e-05
1.27196e-05
1.28138e-05
1.2862e-05
1.28318e-05
1.26646e-05
1.22723e-05
1.15506e-05
1.04144e-05
8.84513e-06
6.92855e-06
4.86142e-06
2.91665e-06
1.38281e-06
5.36037e-07
4.24465e-07
0.00015
0.00015
0.00015
0.00015
0.00015
0.00015
0.00015
0.00015
0.00015
0.00015
0.00015
1.56645e-09
3.44404e-08
2.45232e-07
7.94021e-07
1.73448e-06
3.01613e-06
4.5216e-06
6.10545e-06
7.62987e-06
8.99055e-06
1.01283e-05
1.10269e-05
1.17018e-05
1.21868e-05
1.25219e-05
1.27456e-05
1.28903e-05
1.29813e-05
1.30372e-05
1.30706e-05
1.30903e-05
1.31016e-05
1.31079e-05
1.31115e-05
1.31134e-05
1.31144e-05
1.31149e-05
1.31152e-05
1.31154e-05
1.31154e-05
1.31154e-05
1.31152e-05
1.31141e-05
1.31076e-05
8.49461e-05
5.30216e-05
3.69735e-05
2.77751e-05
2.20443e-05
1.83025e-05
1.58228e-05
1.42054e-05
1.32015e-05
1.26359e-05
1.23743e-05
1.23111e-05
1.23649e-05
1.24764e-05
1.26053e-05
1.27264e-05
1.28233e-05
1.28809e-05
1.28743e-05
1.27561e-05
1.24499e-05
1.18575e-05
1.08844e-05
9.48337e-06
7.69613e-06
5.67377e-06
3.65891e-06
1.94374e-06
9.17075e-07
2.1689e-07
2.2364e-06
0.00015
0.00015
0.00015
0.00015
0.00015
0.00015
0.00015
0.00015
0.00015
3.43068e-10
1.16157e-08
1.27197e-07
5.17171e-07
1.28051e-06
2.40777e-06
3.80862e-06
5.35051e-06
6.89453e-06
8.32403e-06
9.56119e-06
1.05706e-05
1.13525e-05
1.1931e-05
1.23419e-05
1.26233e-05
1.28099e-05
1.293e-05
1.30053e-05
1.30513e-05
1.30789e-05
1.3095e-05
1.31043e-05
1.31095e-05
1.31124e-05
1.31139e-05
1.31148e-05
1.31152e-05
1.31154e-05
1.31155e-05
1.31156e-05
1.31155e-05
1.31153e-05
1.31142e-05
1.31077e-05
8.49467e-05
5.30281e-05
3.69906e-05
2.78035e-05
2.20821e-05
1.83462e-05
1.58681e-05
1.4248e-05
1.32382e-05
1.26651e-05
1.23959e-05
1.23263e-05
1.23751e-05
1.24833e-05
1.26103e-05
1.27311e-05
1.28305e-05
1.28972e-05
1.29138e-05
1.28454e-05
1.26318e-05
1.21868e-05
1.14142e-05
1.02412e-05
8.66021e-06
6.76003e-06
4.72877e-06
2.82839e-06
1.36957e-06
6.77346e-07
1.02456e-07
3.50375e-07
0.00015
0.00015
0.00015
0.00015
0.00015
0.00015
0.00015
1.21145e-10
6.40691e-09
7.63304e-08
3.79338e-07
1.03213e-06
2.0485e-06
3.35974e-06
4.8484e-06
6.38094e-06
7.83697e-06
9.12875e-06
1.02084e-05
1.10645e-05
1.17124e-05
1.21828e-05
1.25118e-05
1.27344e-05
1.28805e-05
1.29738e-05
1.3032e-05
1.30673e-05
1.30884e-05
1.31007e-05
1.31077e-05
1.31117e-05
1.31138e-05
1.3115e-05
1.31156e-05
1.31159e-05
1.31161e-05
1.31161e-05
1.31161e-05
1.31161e-05
1.31159e-05
1.31147e-05
1.31082e-05
8.49477e-05
5.30393e-05
3.70196e-05
2.7851e-05
2.21443e-05
1.84165e-05
1.5939e-05
1.43127e-05
1.3292e-05
1.27061e-05
1.24246e-05
1.23447e-05
1.2386e-05
1.24894e-05
1.26138e-05
1.2734e-05
1.28355e-05
1.29096e-05
1.29454e-05
1.29203e-05
1.27914e-05
1.24912e-05
1.19325e-05
1.10294e-05
9.73174e-06
8.05973e-06
6.12654e-06
4.13771e-06
2.36599e-06
1.09521e-06
3.50427e-07
4.18052e-08
4.55791e-09
0.00015
0.00015
0.00015
0.00015
0.00015
1.07898e-09
1.06664e-08
8.38788e-08
3.74196e-07
9.86527e-07
1.94379e-06
3.19158e-06
4.62688e-06
6.12587e-06
7.57168e-06
8.87471e-06
9.98157e-06
1.08739e-05
1.15607e-05
1.20677e-05
1.24283e-05
1.26764e-05
1.28419e-05
1.29494e-05
1.30173e-05
1.30593e-05
1.30846e-05
1.30997e-05
1.31084e-05
1.31133e-05
1.3116e-05
1.31175e-05
1.31183e-05
1.31187e-05
1.31189e-05
1.3119e-05
1.3119e-05
1.3119e-05
1.3119e-05
1.31188e-05
1.31176e-05
1.31111e-05
8.49496e-05
5.30597e-05
3.70707e-05
2.79321e-05
2.22468e-05
1.85285e-05
1.60482e-05
1.44097e-05
1.33712e-05
1.27658e-05
1.24667e-05
1.23729e-05
1.24047e-05
1.2502e-05
1.26235e-05
1.2743e-05
1.28459e-05
1.29254e-05
1.29749e-05
1.29818e-05
1.29196e-05
1.27421e-05
1.23813e-05
1.1755e-05
1.07902e-05
9.45122e-06
7.77023e-06
5.86769e-06
3.95215e-06
2.28858e-06
1.06254e-06
3.45709e-07
7.61638e-08
1.26348e-08
2.44898e-09
1.05142e-09
2.1497e-09
9.79897e-09
4.42758e-08
1.87432e-07
5.53275e-07
1.20917e-06
2.17009e-06
3.38784e-06
4.77269e-06
6.21457e-06
7.60798e-06
8.87068e-06
9.95203e-06
1.08326e-05
1.15181e-05
1.20306e-05
1.23998e-05
1.26573e-05
1.28314e-05
1.29459e-05
1.30194e-05
1.30654e-05
1.30935e-05
1.31104e-05
1.31203e-05
1.31261e-05
1.31293e-05
1.3131e-05
1.3132e-05
1.31325e-05
1.31327e-05
1.31328e-05
1.31329e-05
1.31329e-05
1.31328e-05
1.31328e-05
1.31326e-05
1.31314e-05
1.31249e-05
8.49536e-05
5.30995e-05
3.71645e-05
2.80714e-05
2.2412e-05
1.86991e-05
1.62085e-05
1.45504e-05
1.3489e-05
1.28615e-05
1.25451e-05
1.24394e-05
1.24637e-05
1.25569e-05
1.26763e-05
1.27947e-05
1.28981e-05
1.29803e-05
1.30375e-05
1.3064e-05
1.30462e-05
1.2957e-05
1.27512e-05
1.23657e-05
1.17289e-05
1.07782e-05
9.48547e-06
7.88287e-06
6.08244e-06
4.2758e-06
2.68223e-06
1.47639e-06
7.08581e-07
2.96687e-07
1.20494e-07
6.83649e-08
9.68199e-08
2.28562e-07
5.30163e-07
1.05617e-06
1.83681e-06
2.86134e-06
4.07919e-06
5.41059e-06
6.7635e-06
8.05259e-06
9.21292e-06
1.02055e-05
1.10164e-05
1.16515e-05
1.21302e-05
1.24784e-05
1.27239e-05
1.28918e-05
1.30038e-05
1.30765e-05
1.31226e-05
1.31512e-05
1.31686e-05
1.31789e-05
1.31848e-05
1.31882e-05
1.31901e-05
1.31911e-05
1.31916e-05
1.31919e-05
1.3192e-05
1.31921e-05
1.31921e-05
1.3192e-05
1.3192e-05
1.3192e-05
1.31918e-05
1.31906e-05
1.3184e-05
8.49621e-05
5.318e-05
3.73338e-05
2.82946e-05
2.2651e-05
1.89311e-05
1.64256e-05
1.47546e-05
1.36871e-05
1.30603e-05
1.27478e-05
1.26472e-05
1.26766e-05
1.27739e-05
1.28955e-05
1.30142e-05
1.3117e-05
1.3198e-05
1.32551e-05
1.32873e-05
1.32898e-05
1.32499e-05
1.31428e-05
1.29291e-05
1.25566e-05
1.19643e-05
1.1102e-05
9.94785e-06
8.52916e-06
6.93893e-06
5.33134e-06
3.88808e-06
2.73855e-06
1.92865e-06
1.44883e-06
1.27152e-06
1.39269e-06
1.79218e-06
2.44637e-06
3.32416e-06
4.38038e-06
5.55288e-06
6.77013e-06
7.96209e-06
9.06956e-06
1.00507e-05
1.08828e-05
1.15605e-05
1.20922e-05
1.24958e-05
1.27919e-05
1.30022e-05
1.31474e-05
1.3245e-05
1.3309e-05
1.33499e-05
1.33755e-05
1.33911e-05
1.34005e-05
1.3406e-05
1.34091e-05
1.34108e-05
1.34117e-05
1.34122e-05
1.34124e-05
1.34125e-05
1.34125e-05
1.34125e-05
1.34125e-05
1.34125e-05
1.34124e-05
1.34124e-05
1.34121e-05
1.34109e-05
1.34043e-05
8.49822e-05
5.33385e-05
3.75993e-05
2.85823e-05
2.2928e-05
1.9208e-05
1.67304e-05
1.51135e-05
1.41193e-05
1.35747e-05
1.33406e-05
1.33017e-05
1.33728e-05
1.34926e-05
1.36214e-05
1.37388e-05
1.38336e-05
1.39028e-05
1.39477e-05
1.3971e-05
1.39728e-05
1.3949e-05
1.38883e-05
1.37696e-05
1.35608e-05
1.3222e-05
1.27106e-05
1.19935e-05
1.10605e-05
9.93996e-06
8.70923e-06
7.49052e-06
6.41665e-06
5.59729e-06
5.1116e-06
4.98754e-06
5.19696e-06
5.68918e-06
6.40636e-06
7.27672e-06
8.22606e-06
9.18546e-06
1.00993e-05
1.09288e-05
1.16513e-05
1.22575e-05
1.2749e-05
1.31344e-05
1.34273e-05
1.3643e-05
1.37972e-05
1.39044e-05
1.39769e-05
1.40246e-05
1.40552e-05
1.40744e-05
1.40861e-05
1.4093e-05
1.4097e-05
1.40992e-05
1.41003e-05
1.41009e-05
1.41011e-05
1.41012e-05
1.41012e-05
1.41011e-05
1.4101e-05
1.4101e-05
1.41009e-05
1.41009e-05
1.41008e-05
1.41007e-05
1.41005e-05
1.40992e-05
1.40925e-05
8.50305e-05
5.35981e-05
3.78733e-05
2.88181e-05
2.31922e-05
1.95969e-05
1.73383e-05
1.5995e-05
1.52787e-05
1.49796e-05
1.49352e-05
1.50258e-05
1.5171e-05
1.53216e-05
1.54534e-05
1.55566e-05
1.56275e-05
1.56707e-05
1.56921e-05
1.56963e-05
1.56857e-05
1.566e-05
1.56146e-05
1.55393e-05
1.54171e-05
1.52257e-05
1.49402e-05
1.45387e-05
1.40103e-05
1.33645e-05
1.26401e-05
1.19078e-05
1.126e-05
1.07918e-05
1.0577e-05
1.06358e-05
1.0902e-05
1.13323e-05
1.1873e-05
1.24635e-05
1.305e-05
1.35941e-05
1.40743e-05
1.44825e-05
1.48192e-05
1.50892e-05
1.52999e-05
1.54597e-05
1.55772e-05
1.56607e-05
1.57183e-05
1.57567e-05
1.57813e-05
1.57965e-05
1.58054e-05
1.58102e-05
1.58126e-05
1.58136e-05
1.58137e-05
1.58134e-05
1.5813e-05
1.58125e-05
1.5812e-05
1.58116e-05
1.58113e-05
1.5811e-05
1.58108e-05
1.58106e-05
1.58104e-05
1.58103e-05
1.58102e-05
1.58101e-05
1.58098e-05
1.58084e-05
1.58018e-05
8.51369e-05
5.37244e-05
3.78708e-05
2.89268e-05
2.36864e-05
2.05905e-05
1.89073e-05
1.8141e-05
1.79204e-05
1.79835e-05
1.81609e-05
1.83585e-05
1.85329e-05
1.86692e-05
1.87671e-05
1.88302e-05
1.88697e-05
1.88942e-05
1.89097e-05
1.89206e-05
1.89291e-05
1.89361e-05
1.89401e-05
1.89368e-05
1.89185e-05
1.88753e-05
1.87965e-05
1.86742e-05
1.85074e-05
1.83062e-05
1.80961e-05
1.79174e-05
1.78184e-05
1.78412e-05
1.8e-05
1.82553e-05
1.85187e-05
1.87641e-05
1.89648e-05
1.91035e-05
1.91793e-05
1.92041e-05
1.91965e-05
1.91718e-05
1.91411e-05
1.91103e-05
1.90818e-05
1.90558e-05
1.90321e-05
1.90104e-05
1.89907e-05
1.89731e-05
1.89577e-05
1.89444e-05
1.89331e-05
1.89237e-05
1.89159e-05
1.89096e-05
1.89046e-05
1.89006e-05
1.88974e-05
1.88949e-05
1.8893e-05
1.88915e-05
1.88903e-05
1.88894e-05
1.88887e-05
1.88881e-05
1.88877e-05
1.88874e-05
1.88871e-05
1.8887e-05
1.88867e-05
1.88853e-05
1.88789e-05
8.55224e-05
5.31862e-05
3.77591e-05
2.95152e-05
2.49416e-05
2.26399e-05
2.17033e-05
2.14777e-05
2.15491e-05
2.17025e-05
2.18494e-05
2.19672e-05
2.20578e-05
2.21279e-05
2.21859e-05
2.22402e-05
2.2298e-05
2.23646e-05
2.24447e-05
2.25429e-05
2.26637e-05
2.28118e-05
2.29913e-05
2.32055e-05
2.34568e-05
2.3747e-05
2.40788e-05
2.4457e-05
2.48893e-05
2.53851e-05
2.59525e-05
2.65907e-05
2.72773e-05
2.79625e-05
2.85593e-05
2.88933e-05
2.88943e-05
2.85808e-05
2.80117e-05
2.72762e-05
2.64729e-05
2.56885e-05
2.49801e-05
2.43738e-05
2.3875e-05
2.34751e-05
2.316e-05
2.29139e-05
2.27225e-05
2.25742e-05
2.24593e-05
2.23705e-05
2.23019e-05
2.2249e-05
2.22082e-05
2.21769e-05
2.21528e-05
2.21343e-05
2.21202e-05
2.21094e-05
2.21012e-05
2.2095e-05
2.20902e-05
2.20866e-05
2.20838e-05
2.20818e-05
2.20802e-05
2.2079e-05
2.20781e-05
2.20774e-05
2.2077e-05
2.20767e-05
2.20765e-05
2.20753e-05
2.20691e-05
)
;

boundaryField
{
    ibCylinder
    {
        type            immersedBoundaryKqRWallFunction;
        patchType       immersedBoundary;
        setDeadValue    true;
        deadValue       0.00015;
        value           nonuniform List<scalar> 0();
    }
    in
    {
        type            fixedValue;
        value           uniform 0.00015;
    }
    out
    {
        type            inletOutlet;
        inletValue      uniform 0.00015;
        value           nonuniform List<scalar> 
25
(
2.20605e-05
1.88917e-05
1.58387e-05
1.41307e-05
1.34289e-05
1.31956e-05
1.31292e-05
1.31124e-05
1.31086e-05
1.31077e-05
1.31076e-05
1.31075e-05
1.31075e-05
1.31075e-05
1.31076e-05
1.31077e-05
1.31082e-05
1.31111e-05
1.31249e-05
1.3184e-05
1.34043e-05
1.40925e-05
1.58018e-05
1.88789e-05
2.20691e-05
)
;
    }
    top
    {
        type            zeroGradient;
    }
    bottom
    {
        type            zeroGradient;
    }
    frontAndBack
    {
        type            empty;
    }
}


// ************************************************************************* //
