/*--------------------------------*- C++ -*----------------------------------*\
| =========                 |                                                 |
| \\      /  F ield         | OpenFOAM: The Open Source CFD Toolbox           |
|  \\    /   O peration     | Version:  2206                                  |
|   \\  /    A nd           | Website:  www.openfoam.com                      |
|    \\/     M anipulation  |                                                 |
\*---------------------------------------------------------------------------*/
FoamFile
{
    version     2.0;
    format      ascii;
    arch        "LSB;label=32;scalar=64";
    class       volScalarField;
    location    "0.4";
    object      nut;
}
// * * * * * * * * * * * * * * * * * * * * * * * * * * * * * * * * * * * * * //

dimensions      [0 2 -1 0 0 0 0];

internalField   nonuniform List<scalar> 
1875
(
2.91414e-07
2.88152e-07
2.94849e-07
3.10381e-07
3.35299e-07
3.7144e-07
4.1644e-07
4.6378e-07
5.06539e-07
5.4065e-07
5.654e-07
5.82188e-07
5.93074e-07
5.99927e-07
6.04209e-07
6.06969e-07
6.08911e-07
6.10476e-07
6.1195e-07
6.13518e-07
6.15302e-07
6.17372e-07
6.19742e-07
6.22345e-07
6.25023e-07
6.27533e-07
6.29581e-07
6.30909e-07
6.31393e-07
6.31175e-07
6.30806e-07
6.31281e-07
6.33785e-07
6.39179e-07
6.47143e-07
6.54901e-07
6.6055e-07
6.63575e-07
6.63683e-07
6.61026e-07
6.56226e-07
6.50164e-07
6.4368e-07
6.37393e-07
6.31699e-07
6.26777e-07
6.22659e-07
6.1929e-07
6.16575e-07
6.14413e-07
6.12707e-07
6.1137e-07
6.10328e-07
6.09519e-07
6.08894e-07
6.08412e-07
6.08042e-07
6.07758e-07
6.07541e-07
6.07375e-07
6.07248e-07
6.07152e-07
6.07078e-07
6.07022e-07
6.0698e-07
6.06948e-07
6.06924e-07
6.06905e-07
6.06892e-07
6.06882e-07
6.06876e-07
6.06876e-07
6.06889e-07
6.06928e-07
6.07001e-07
2.90333e-07
2.83238e-07
2.80271e-07
2.82508e-07
2.91669e-07
3.08629e-07
3.34229e-07
3.67036e-07
4.03376e-07
4.38811e-07
4.69756e-07
4.94422e-07
5.12687e-07
5.25425e-07
5.33873e-07
5.39174e-07
5.42392e-07
5.44285e-07
5.45364e-07
5.45953e-07
5.46237e-07
5.46279e-07
5.46021e-07
5.4525e-07
5.43566e-07
5.40369e-07
5.34893e-07
5.26303e-07
5.13908e-07
4.97517e-07
4.77977e-07
4.57628e-07
4.40121e-07
4.29322e-07
4.27733e-07
4.34489e-07
4.45636e-07
4.60309e-07
4.7685e-07
4.93384e-07
5.08373e-07
5.20857e-07
5.30506e-07
5.37457e-07
5.42139e-07
5.45083e-07
5.46788e-07
5.47662e-07
5.48012e-07
5.48052e-07
5.47927e-07
5.47729e-07
5.47511e-07
5.47302e-07
5.47116e-07
5.46956e-07
5.46825e-07
5.46718e-07
5.46633e-07
5.46565e-07
5.46512e-07
5.46471e-07
5.46439e-07
5.46414e-07
5.46395e-07
5.4638e-07
5.46368e-07
5.4636e-07
5.46353e-07
5.46348e-07
5.46345e-07
5.46345e-07
5.46355e-07
5.46396e-07
5.46558e-07
2.90044e-07
2.82103e-07
2.76735e-07
2.74072e-07
2.74899e-07
2.80291e-07
2.91356e-07
3.08441e-07
3.30783e-07
3.56532e-07
3.83093e-07
4.07926e-07
4.29235e-07
4.46201e-07
4.58889e-07
4.67857e-07
4.73812e-07
4.77553e-07
4.79736e-07
4.80839e-07
4.81147e-07
4.80748e-07
4.7949e-07
4.76908e-07
4.72136e-07
4.6387e-07
4.50409e-07
4.29869e-07
4.00713e-07
3.62781e-07
3.18608e-07
2.73922e-07
2.35737e-07
2.09361e-07
1.97561e-07
2.00049e-07
2.11787e-07
2.32071e-07
2.59505e-07
2.91825e-07
3.26326e-07
3.60148e-07
3.90854e-07
4.16839e-07
4.37482e-07
4.52996e-07
4.6411e-07
4.71748e-07
4.76808e-07
4.80049e-07
4.82061e-07
4.83273e-07
4.8398e-07
4.84376e-07
4.84589e-07
4.84696e-07
4.84744e-07
4.8476e-07
4.84762e-07
4.84757e-07
4.84749e-07
4.84741e-07
4.84734e-07
4.84727e-07
4.84722e-07
4.84718e-07
4.84714e-07
4.84711e-07
4.84709e-07
4.84707e-07
4.84707e-07
4.84707e-07
4.84712e-07
4.84735e-07
4.8484e-07
2.89955e-07
2.81729e-07
2.75698e-07
2.71627e-07
2.6982e-07
2.70964e-07
2.75915e-07
2.85359e-07
2.99483e-07
3.17686e-07
3.38541e-07
3.60078e-07
3.80416e-07
3.98141e-07
4.12537e-07
4.23568e-07
4.31547e-07
4.3701e-07
4.4053e-07
4.42576e-07
4.43413e-07
4.43008e-07
4.40906e-07
4.36072e-07
4.26751e-07
4.10471e-07
3.8429e-07
3.45605e-07
2.93806e-07
2.32573e-07
1.70719e-07
1.18642e-07
8.19884e-08
5.98446e-08
4.93732e-08
4.83124e-08
5.42182e-08
6.72479e-08
8.80357e-08
1.16942e-07
1.53729e-07
1.96643e-07
2.42572e-07
2.87668e-07
3.28403e-07
3.62478e-07
3.89121e-07
4.08795e-07
4.22645e-07
4.32013e-07
4.38138e-07
4.42029e-07
4.44437e-07
4.45894e-07
4.46758e-07
4.47261e-07
4.47548e-07
4.47709e-07
4.47799e-07
4.47848e-07
4.47875e-07
4.47889e-07
4.47897e-07
4.47901e-07
4.47904e-07
4.47905e-07
4.47906e-07
4.47906e-07
4.47906e-07
4.47906e-07
4.47906e-07
4.47907e-07
4.4791e-07
4.47921e-07
4.47977e-07
2.89929e-07
2.81588e-07
2.75319e-07
2.70826e-07
2.68248e-07
2.68103e-07
2.71127e-07
2.78006e-07
2.89076e-07
3.0405e-07
3.21947e-07
3.41253e-07
3.60296e-07
3.77635e-07
3.92334e-07
4.04035e-07
4.12869e-07
4.19187e-07
4.23431e-07
4.25948e-07
4.26809e-07
4.25606e-07
4.21219e-07
4.11583e-07
3.93664e-07
3.63742e-07
3.18664e-07
2.58105e-07
1.87606e-07
1.19285e-07
6.60228e-08
3.29279e-08
1.6009e-08
8.16488e-09
4.8943e-09
4.10659e-09
5.14443e-09
8.53303e-09
1.55349e-08
2.7976e-08
4.82549e-08
7.8115e-08
1.17911e-07
1.65736e-07
2.17418e-07
2.67753e-07
3.12282e-07
3.48497e-07
3.75946e-07
3.95604e-07
4.09035e-07
4.17867e-07
4.23496e-07
4.26991e-07
4.29113e-07
4.30376e-07
4.31115e-07
4.31542e-07
4.31786e-07
4.31925e-07
4.32003e-07
4.32048e-07
4.32074e-07
4.32089e-07
4.32098e-07
4.32104e-07
4.32108e-07
4.3211e-07
4.32112e-07
4.32113e-07
4.32114e-07
4.32115e-07
4.32117e-07
4.32122e-07
4.32145e-07
2.89921e-07
2.81537e-07
2.75166e-07
2.70521e-07
2.6774e-07
2.67315e-07
2.69939e-07
2.76256e-07
2.86581e-07
3.00662e-07
3.1763e-07
3.36099e-07
3.54491e-07
3.7142e-07
3.85953e-07
3.97681e-07
4.06648e-07
4.1314e-07
4.17484e-07
4.19821e-07
4.19835e-07
4.16426e-07
4.07397e-07
3.89345e-07
3.58116e-07
3.10224e-07
2.45584e-07
1.70874e-07
1.00065e-07
4.75248e-08
1.79701e-08
5.48131e-09
1.49176e-09
3.63689e-10
9.12438e-11
4.10973e-11
7.31026e-11
2.8585e-10
1.14294e-09
3.69619e-09
1.0021e-08
2.29005e-08
4.53041e-08
7.93033e-08
1.24561e-07
1.77545e-07
2.32405e-07
2.83163e-07
3.25732e-07
3.58624e-07
3.82413e-07
3.98737e-07
4.09482e-07
4.16321e-07
4.20556e-07
4.23119e-07
4.2464e-07
4.25526e-07
4.26037e-07
4.26327e-07
4.26492e-07
4.26585e-07
4.26638e-07
4.26668e-07
4.26686e-07
4.26697e-07
4.26704e-07
4.26709e-07
4.26712e-07
4.26714e-07
4.26715e-07
4.26717e-07
4.26718e-07
4.2672e-07
4.26726e-07
2.89918e-07
2.81517e-07
2.75102e-07
2.70398e-07
2.67571e-07
2.67148e-07
2.69839e-07
2.76271e-07
2.86705e-07
3.00828e-07
3.17704e-07
3.3595e-07
3.54043e-07
3.70656e-07
3.84917e-07
3.96443e-07
4.05251e-07
4.11574e-07
4.15593e-07
4.17129e-07
4.15258e-07
4.079e-07
3.9159e-07
3.6185e-07
3.14751e-07
2.49834e-07
1.73576e-07
1.00183e-07
4.52518e-08
1.49444e-08
3.28683e-09
4.18825e-10
3.84063e-11
3.58775e-12
1.77413e-13
4.1092e-14
1.42534e-13
1.81665e-12
2.32534e-11
2.25079e-10
1.31371e-09
5.15073e-09
1.46621e-08
3.33597e-08
6.41774e-08
1.07667e-07
1.6079e-07
2.17507e-07
2.71101e-07
3.16642e-07
3.52072e-07
3.77752e-07
3.95354e-07
4.069e-07
4.14211e-07
4.18709e-07
4.21413e-07
4.23005e-07
4.23927e-07
4.24454e-07
4.24752e-07
4.2492e-07
4.25014e-07
4.25067e-07
4.25097e-07
4.25114e-07
4.25125e-07
4.25131e-07
4.25135e-07
4.25138e-07
4.2514e-07
4.25142e-07
4.25143e-07
4.25144e-07
4.25142e-07
2.89916e-07
2.81508e-07
2.75075e-07
2.70346e-07
2.67518e-07
2.67154e-07
2.7e-07
2.76684e-07
2.87427e-07
3.01837e-07
3.18898e-07
3.37173e-07
3.55143e-07
3.71535e-07
3.85527e-07
3.96781e-07
4.05319e-07
4.11296e-07
4.14683e-07
4.14845e-07
4.10053e-07
3.97101e-07
3.71452e-07
3.28555e-07
2.66747e-07
1.90981e-07
1.14361e-07
5.34751e-08
1.78086e-08
3.60573e-09
3.09843e-10
7.81777e-12
9.35174e-13
1e-06
1e-06
1e-06
1e-06
1e-06
2.64327e-14
2.36824e-12
6.48174e-11
7.20605e-10
3.80263e-09
1.25533e-08
3.08903e-08
6.19512e-08
1.06226e-07
1.60394e-07
2.18064e-07
2.7227e-07
3.18026e-07
3.53362e-07
3.78774e-07
3.96054e-07
4.073e-07
4.14366e-07
4.18681e-07
4.21253e-07
4.22757e-07
4.23621e-07
4.2411e-07
4.24384e-07
4.24537e-07
4.24621e-07
4.24668e-07
4.24695e-07
4.2471e-07
4.24719e-07
4.24724e-07
4.24727e-07
4.2473e-07
4.24731e-07
4.24733e-07
4.24733e-07
4.24728e-07
2.89916e-07
2.81504e-07
2.75061e-07
2.70323e-07
2.67501e-07
2.67193e-07
2.70173e-07
2.77082e-07
2.88113e-07
3.02811e-07
3.20089e-07
3.38456e-07
3.56382e-07
3.72621e-07
3.86397e-07
3.97404e-07
4.05652e-07
4.11189e-07
4.13698e-07
4.11977e-07
4.03409e-07
3.83787e-07
3.48107e-07
2.93019e-07
2.20683e-07
1.41633e-07
7.24725e-08
2.6877e-08
6.13842e-09
5.82731e-10
1.65684e-11
1.5871e-12
1e-06
1e-06
1e-06
1e-06
1e-06
1e-06
1e-06
3.72876e-16
1.44416e-12
6.69557e-11
8.47101e-10
4.45589e-09
1.45403e-08
3.52171e-08
6.92957e-08
1.16427e-07
1.72364e-07
2.30225e-07
2.83213e-07
3.26938e-07
3.6006e-07
3.83498e-07
3.99218e-07
4.09327e-07
4.15612e-07
4.19413e-07
4.21659e-07
4.2296e-07
4.23701e-07
4.24117e-07
4.24349e-07
4.24476e-07
4.24546e-07
4.24584e-07
4.24606e-07
4.24618e-07
4.24625e-07
4.24629e-07
4.24631e-07
4.24633e-07
4.24634e-07
4.24635e-07
4.24629e-07
2.89915e-07
2.81502e-07
2.75054e-07
2.7031e-07
2.67494e-07
2.67225e-07
2.703e-07
2.77371e-07
2.88616e-07
3.03538e-07
3.20993e-07
3.39449e-07
3.57362e-07
3.73502e-07
3.87121e-07
3.97928e-07
4.05898e-07
4.10939e-07
4.12402e-07
4.08485e-07
3.9576e-07
3.69348e-07
3.24497e-07
2.59983e-07
1.82033e-07
1.05111e-07
4.60152e-08
1.3315e-08
1.90618e-09
9.53698e-11
6.02194e-11
1e-06
1e-06
1e-06
1e-06
1e-06
1e-06
1e-06
1e-06
1e-06
8.2879e-15
6.31183e-12
2.02748e-10
1.69452e-09
7.15017e-09
2.05395e-08
4.58097e-08
8.48744e-08
1.35969e-07
1.93605e-07
2.50542e-07
3.00614e-07
3.4054e-07
3.69943e-07
3.90276e-07
4.03662e-07
4.12136e-07
4.17335e-07
4.20442e-07
4.22258e-07
4.233e-07
4.23888e-07
4.24216e-07
4.24396e-07
4.24494e-07
4.24547e-07
4.24577e-07
4.24593e-07
4.24601e-07
4.24606e-07
4.24609e-07
4.24611e-07
4.24613e-07
4.24613e-07
4.24607e-07
2.89915e-07
2.815e-07
2.75049e-07
2.70302e-07
2.67491e-07
2.67245e-07
2.70379e-07
2.77554e-07
2.8894e-07
3.04014e-07
3.21594e-07
3.40119e-07
3.58032e-07
3.74111e-07
3.87621e-07
3.98274e-07
4.05997e-07
4.10542e-07
4.10935e-07
4.04845e-07
3.8823e-07
3.55921e-07
3.03899e-07
2.33229e-07
1.53383e-07
8.08317e-08
3.08042e-08
7.07224e-09
7.32086e-10
8.92124e-11
1e-06
1e-06
1e-06
1e-06
1e-06
1e-06
1e-06
1e-06
1e-06
1e-06
1e-06
3.03388e-13
2.68916e-11
5.35368e-10
3.45747e-09
1.23592e-08
3.13498e-08
6.34928e-08
1.09006e-07
1.64231e-07
2.22503e-07
2.76751e-07
3.22074e-07
3.567e-07
3.81327e-07
3.97888e-07
4.08546e-07
4.15168e-07
4.19167e-07
4.21524e-07
4.22886e-07
4.23658e-07
4.24089e-07
4.24327e-07
4.24456e-07
4.24526e-07
4.24564e-07
4.24584e-07
4.24595e-07
4.24601e-07
4.24605e-07
4.24607e-07
4.24608e-07
4.24608e-07
4.24602e-07
2.89915e-07
2.815e-07
2.75047e-07
2.70298e-07
2.67488e-07
2.67255e-07
2.70421e-07
2.77655e-07
2.89124e-07
3.04288e-07
3.21946e-07
3.40516e-07
3.58432e-07
3.74475e-07
3.87917e-07
3.98464e-07
4.05994e-07
4.10136e-07
4.09661e-07
4.01871e-07
3.82361e-07
3.45925e-07
2.89288e-07
2.1521e-07
1.35185e-07
6.65705e-08
2.29501e-08
4.4466e-09
3.01013e-10
6.99148e-12
1e-06
1e-06
1e-06
1e-06
1e-06
1e-06
1e-06
1e-06
1e-06
1e-06
1e-06
1.51017e-14
3.1537e-12
1.53372e-10
1.64226e-09
7.75346e-09
2.28531e-08
5.04594e-08
9.17201e-08
1.44269e-07
2.02332e-07
2.58712e-07
3.07547e-07
3.45955e-07
3.73894e-07
3.93006e-07
4.05467e-07
4.13288e-07
4.1805e-07
4.20876e-07
4.22517e-07
4.23453e-07
4.23977e-07
4.24267e-07
4.24425e-07
4.2451e-07
4.24556e-07
4.2458e-07
4.24593e-07
4.246e-07
4.24604e-07
4.24606e-07
4.24608e-07
4.24608e-07
4.24602e-07
2.89915e-07
2.81499e-07
2.75046e-07
2.70297e-07
2.67488e-07
2.6726e-07
2.70442e-07
2.77705e-07
2.89214e-07
3.04423e-07
3.22119e-07
3.40711e-07
3.58628e-07
3.74651e-07
3.88056e-07
3.98546e-07
4.05982e-07
4.09936e-07
4.09082e-07
4.00587e-07
3.79937e-07
3.4196e-07
2.83721e-07
2.08598e-07
1.28676e-07
6.14886e-08
2.01809e-08
3.60389e-09
2.95162e-10
1.73023e-10
1e-06
1e-06
1e-06
1e-06
1e-06
1e-06
1e-06
1e-06
1e-06
1e-06
1e-06
3.07367e-15
1.0031e-12
7.62592e-11
1.07564e-09
5.99158e-09
1.94095e-08
4.51509e-08
8.46205e-08
1.35857e-07
1.93503e-07
2.50473e-07
3.0063e-07
3.4064e-07
3.7009e-07
3.90429e-07
4.03795e-07
4.12241e-07
4.17412e-07
4.20498e-07
4.22298e-07
4.23328e-07
4.23908e-07
4.24229e-07
4.24405e-07
4.245e-07
4.24551e-07
4.24578e-07
4.24592e-07
4.246e-07
4.24604e-07
4.24606e-07
4.24608e-07
4.24608e-07
4.24602e-07
2.89915e-07
2.815e-07
2.75047e-07
2.70299e-07
2.67491e-07
2.67265e-07
2.70449e-07
2.77715e-07
2.89229e-07
3.04442e-07
3.2214e-07
3.4073e-07
3.58642e-07
3.74657e-07
3.88055e-07
3.98549e-07
4.06019e-07
4.10087e-07
4.09525e-07
4.01645e-07
3.82074e-07
3.45642e-07
2.89088e-07
2.15109e-07
1.35107e-07
6.64712e-08
2.29748e-08
4.5875e-09
5.23694e-10
7.76668e-12
1e-06
1e-06
1e-06
1e-06
1e-06
1e-06
1e-06
1e-06
1e-06
1e-06
1e-06
1.35566e-14
2.93459e-12
1.42915e-10
1.5434e-09
7.39223e-09
2.20811e-08
4.91671e-08
8.97599e-08
1.41534e-07
1.98928e-07
2.54993e-07
3.0396e-07
3.42848e-07
3.71428e-07
3.91181e-07
4.04188e-07
4.12431e-07
4.17497e-07
4.20531e-07
4.22308e-07
4.23329e-07
4.23906e-07
4.24227e-07
4.24403e-07
4.24499e-07
4.2455e-07
4.24578e-07
4.24592e-07
4.246e-07
4.24604e-07
4.24606e-07
4.24608e-07
4.24608e-07
4.24602e-07
2.89915e-07
2.815e-07
2.75049e-07
2.70303e-07
2.67496e-07
2.67266e-07
2.70435e-07
2.77672e-07
2.89143e-07
3.04309e-07
3.21966e-07
3.40529e-07
3.58433e-07
3.74458e-07
3.87887e-07
3.98442e-07
4.06056e-07
4.10477e-07
4.10724e-07
4.04481e-07
3.87755e-07
3.55444e-07
3.03551e-07
2.33047e-07
1.5327e-07
8.07413e-08
3.09385e-08
7.40535e-09
9.10896e-10
8.15292e-11
1e-06
1e-06
1e-06
1e-06
1e-06
1e-06
1e-06
1e-06
1e-06
1e-06
1e-06
2.66785e-13
2.47042e-11
4.85637e-10
3.18889e-09
1.16399e-08
2.99317e-08
6.10283e-08
1.05122e-07
1.58824e-07
2.15965e-07
2.69857e-07
3.1563e-07
3.51249e-07
3.77072e-07
3.94773e-07
4.06379e-07
4.13723e-07
4.18238e-07
4.20945e-07
4.22535e-07
4.23452e-07
4.23972e-07
4.24262e-07
4.24422e-07
4.24509e-07
4.24556e-07
4.24581e-07
4.24594e-07
4.24601e-07
4.24605e-07
4.24607e-07
4.24609e-07
4.24608e-07
4.24602e-07
2.89915e-07
2.81502e-07
2.75054e-07
2.70311e-07
2.67503e-07
2.67258e-07
2.70385e-07
2.77547e-07
2.88916e-07
3.03972e-07
3.21538e-07
3.40049e-07
3.57948e-07
3.74011e-07
3.87512e-07
3.98182e-07
4.06008e-07
4.10892e-07
4.12176e-07
4.08069e-07
3.95194e-07
3.68755e-07
3.24047e-07
2.59754e-07
1.8193e-07
1.05024e-07
4.60438e-08
1.35879e-08
2.65583e-09
1.17835e-10
5.95806e-11
1e-06
1e-06
1e-06
1e-06
1e-06
1e-06
1e-06
1e-06
1e-06
7.12933e-15
5.66057e-12
1.88958e-10
1.58818e-09
6.76487e-09
1.95357e-08
4.3638e-08
8.08877e-08
1.29776e-07
1.85433e-07
2.41259e-07
2.91361e-07
3.32271e-07
3.63178e-07
3.8512e-07
3.99949e-07
4.09584e-07
4.15648e-07
4.19364e-07
4.21591e-07
4.22899e-07
4.23654e-07
4.24082e-07
4.24322e-07
4.24455e-07
4.24528e-07
4.24567e-07
4.24588e-07
4.24599e-07
4.24606e-07
4.24609e-07
4.24611e-07
4.24612e-07
4.24612e-07
4.24606e-07
2.89916e-07
2.81504e-07
2.75061e-07
2.70325e-07
2.67514e-07
2.67238e-07
2.70288e-07
2.77318e-07
2.88512e-07
3.03385e-07
3.20805e-07
3.39241e-07
3.57145e-07
3.73283e-07
3.86908e-07
3.97742e-07
4.05815e-07
4.11174e-07
4.13492e-07
4.11564e-07
4.02815e-07
3.83127e-07
3.47582e-07
2.92793e-07
2.20713e-07
1.41687e-07
7.24238e-08
2.69448e-08
6.75261e-09
1.10823e-09
2.23875e-11
1.45339e-12
1e-06
1e-06
1e-06
1e-06
1e-06
1e-06
1e-06
3.18878e-16
1.28948e-12
6.20466e-11
8.02274e-10
4.25027e-09
1.38179e-08
3.3305e-08
6.53551e-08
1.09832e-07
1.6313e-07
2.1917e-07
2.71655e-07
3.16161e-07
3.50912e-07
3.76297e-07
3.93885e-07
4.05569e-07
4.1307e-07
4.17754e-07
4.2061e-07
4.22315e-07
4.23315e-07
4.23892e-07
4.2422e-07
4.24404e-07
4.24506e-07
4.24562e-07
4.24593e-07
4.24609e-07
4.24618e-07
4.24623e-07
4.24626e-07
4.24627e-07
4.24628e-07
4.24628e-07
4.24622e-07
2.89916e-07
2.81508e-07
2.75075e-07
2.7035e-07
2.67535e-07
2.67213e-07
2.70147e-07
2.76981e-07
2.87923e-07
3.02542e-07
3.19768e-07
3.38118e-07
3.56053e-07
3.72315e-07
3.8612e-07
3.97169e-07
4.05508e-07
4.11298e-07
4.14498e-07
4.14458e-07
4.09471e-07
3.96412e-07
3.70861e-07
3.28314e-07
2.66938e-07
1.91349e-07
1.14557e-07
5.35322e-08
1.80886e-08
4.08275e-09
4.19799e-10
9.06657e-12
1.15259e-13
1e-06
1e-06
1e-06
1e-06
1e-06
2.3742e-14
2.16385e-12
6.04212e-11
6.81078e-10
3.53385e-09
1.16438e-08
2.86487e-08
5.74678e-08
9.87211e-08
1.49729e-07
2.05023e-07
2.58323e-07
3.04726e-07
3.41829e-07
3.69517e-07
3.89071e-07
4.02293e-07
4.10922e-07
4.16394e-07
4.19781e-07
4.21833e-07
4.23054e-07
4.23768e-07
4.24179e-07
4.24413e-07
4.24544e-07
4.24617e-07
4.24658e-07
4.2468e-07
4.24692e-07
4.24698e-07
4.24702e-07
4.24704e-07
4.24705e-07
4.24706e-07
4.24706e-07
4.247e-07
2.89918e-07
2.81517e-07
2.75103e-07
2.70402e-07
2.67593e-07
2.67221e-07
2.70018e-07
2.76622e-07
2.8728e-07
3.01629e-07
3.18674e-07
3.36978e-07
3.55004e-07
3.71449e-07
3.85487e-07
3.9678e-07
4.05376e-07
4.11515e-07
4.15366e-07
4.16732e-07
4.14686e-07
4.07202e-07
3.90936e-07
3.61528e-07
3.1502e-07
2.50655e-07
1.74578e-07
1.01028e-07
4.5971e-08
1.56725e-08
3.61316e-09
4.6886e-10
4.02665e-11
2.32684e-12
1.63281e-13
4.20371e-14
1.39794e-13
1.7352e-12
2.2165e-11
2.14124e-10
1.25018e-09
4.72976e-09
1.33323e-08
3.03059e-08
5.83808e-08
9.82867e-08
1.47727e-07
2.01708e-07
2.54277e-07
3.00593e-07
3.38104e-07
3.6647e-07
3.86773e-07
4.00683e-07
4.09883e-07
4.15794e-07
4.195e-07
4.21775e-07
4.23146e-07
4.23959e-07
4.24433e-07
4.24706e-07
4.24862e-07
4.24949e-07
4.24998e-07
4.25025e-07
4.2504e-07
4.25048e-07
4.25053e-07
4.25055e-07
4.25057e-07
4.25058e-07
4.25058e-07
4.25058e-07
4.25052e-07
2.8992e-07
2.81537e-07
2.75166e-07
2.70526e-07
2.67766e-07
2.67401e-07
2.70145e-07
2.76647e-07
2.87199e-07
3.01489e-07
3.18583e-07
3.3705e-07
3.55309e-07
3.72013e-07
3.86284e-07
3.97764e-07
4.06524e-07
4.12859e-07
4.17076e-07
4.19297e-07
4.19189e-07
4.15677e-07
4.0665e-07
3.8885e-07
3.58231e-07
3.11227e-07
2.47433e-07
1.73168e-07
1.02339e-07
4.94516e-08
1.91022e-08
6.03894e-09
1.6621e-09
3.9042e-10
9.64092e-11
4.31498e-11
7.4355e-11
2.82391e-10
1.11084e-09
3.52858e-09
9.26464e-09
2.07568e-08
4.06989e-08
7.10924e-08
1.12026e-07
1.6094e-07
2.13101e-07
2.63193e-07
3.07046e-07
3.42542e-07
3.69479e-07
3.88889e-07
4.02306e-07
4.11272e-07
4.17099e-07
4.20796e-07
4.23094e-07
4.24495e-07
4.25335e-07
4.25831e-07
4.26119e-07
4.26285e-07
4.2638e-07
4.26433e-07
4.26462e-07
4.26479e-07
4.26488e-07
4.26493e-07
4.26496e-07
4.26498e-07
4.26499e-07
4.26499e-07
4.265e-07
4.265e-07
4.26496e-07
2.89929e-07
2.81588e-07
2.75319e-07
2.70831e-07
2.68279e-07
2.68202e-07
2.71355e-07
2.78418e-07
2.89683e-07
3.04796e-07
3.22711e-07
3.41889e-07
3.60686e-07
3.77723e-07
3.92128e-07
4.03592e-07
4.12261e-07
4.1848e-07
4.22667e-07
4.25145e-07
4.25961e-07
4.24709e-07
4.20318e-07
4.10836e-07
3.93386e-07
3.64359e-07
3.20552e-07
2.61346e-07
1.91847e-07
1.23811e-07
6.98429e-08
3.56539e-08
1.7635e-08
9.02711e-09
5.40744e-09
4.47012e-09
5.34711e-09
8.36346e-09
1.46038e-08
2.56709e-08
4.34929e-08
6.97379e-08
1.05033e-07
1.48245e-07
1.96291e-07
2.44871e-07
2.89808e-07
3.28209e-07
3.58876e-07
3.82042e-07
3.98746e-07
4.10342e-07
4.18143e-07
4.23255e-07
4.26528e-07
4.2858e-07
4.29844e-07
4.30609e-07
4.31065e-07
4.31333e-07
4.31487e-07
4.31576e-07
4.31626e-07
4.31654e-07
4.31669e-07
4.31677e-07
4.31682e-07
4.31684e-07
4.31686e-07
4.31687e-07
4.31687e-07
4.31687e-07
4.31688e-07
4.31689e-07
4.3169e-07
2.89955e-07
2.81728e-07
2.75697e-07
2.71632e-07
2.69856e-07
2.71078e-07
2.76165e-07
2.85775e-07
3.00024e-07
3.18231e-07
3.38926e-07
3.60159e-07
3.80125e-07
3.97499e-07
4.11628e-07
4.225e-07
4.30418e-07
4.35885e-07
4.39444e-07
4.41536e-07
4.42404e-07
4.42008e-07
4.39914e-07
4.35154e-07
4.261e-07
4.10436e-07
3.85351e-07
3.48258e-07
2.9835e-07
2.38868e-07
1.77953e-07
1.25697e-07
8.79832e-08
6.45592e-08
5.30534e-08
5.09859e-08
5.53122e-08
6.59218e-08
8.34234e-08
1.0823e-07
1.4025e-07
1.78415e-07
2.20515e-07
2.635e-07
3.04186e-07
3.40049e-07
3.69705e-07
3.9291e-07
4.10238e-07
4.2268e-07
4.31319e-07
4.37151e-07
4.4099e-07
4.4346e-07
4.45018e-07
4.45981e-07
4.46566e-07
4.46914e-07
4.47118e-07
4.47236e-07
4.47302e-07
4.47338e-07
4.47357e-07
4.47367e-07
4.47372e-07
4.47374e-07
4.47375e-07
4.47375e-07
4.47374e-07
4.47374e-07
4.47374e-07
4.47374e-07
4.47376e-07
4.47381e-07
4.47399e-07
2.90044e-07
2.82102e-07
2.76733e-07
2.74075e-07
2.74938e-07
2.80423e-07
2.91629e-07
3.08835e-07
3.31178e-07
3.56744e-07
3.82959e-07
4.07386e-07
4.28341e-07
4.45081e-07
4.57688e-07
4.66692e-07
4.72753e-07
4.76627e-07
4.78939e-07
4.80144e-07
4.80516e-07
4.80142e-07
4.78881e-07
4.76305e-07
4.71622e-07
4.63643e-07
4.50805e-07
4.31344e-07
4.03771e-07
3.67812e-07
3.25626e-07
2.82356e-07
2.44536e-07
2.17417e-07
2.03854e-07
2.03413e-07
2.11083e-07
2.26369e-07
2.48469e-07
2.75857e-07
3.06514e-07
3.38153e-07
3.68552e-07
3.95908e-07
4.191e-07
4.37743e-07
4.52052e-07
4.62601e-07
4.70111e-07
4.75293e-07
4.78772e-07
4.81049e-07
4.82502e-07
4.83407e-07
4.83956e-07
4.84279e-07
4.84463e-07
4.84563e-07
4.84614e-07
4.84638e-07
4.84646e-07
4.84646e-07
4.84643e-07
4.84639e-07
4.84634e-07
4.8463e-07
4.84626e-07
4.84623e-07
4.84621e-07
4.84619e-07
4.84618e-07
4.84619e-07
4.84624e-07
4.84644e-07
4.8471e-07
2.90333e-07
2.83237e-07
2.80268e-07
2.82511e-07
2.91711e-07
3.08757e-07
3.3444e-07
3.67228e-07
4.03385e-07
4.38521e-07
4.69179e-07
4.93681e-07
5.11948e-07
5.2483e-07
5.33505e-07
5.39057e-07
5.42508e-07
5.44594e-07
5.45814e-07
5.46492e-07
5.46815e-07
5.46853e-07
5.46558e-07
5.4574e-07
5.44039e-07
5.40924e-07
5.35711e-07
5.2765e-07
5.16097e-07
5.00828e-07
4.82516e-07
4.6314e-07
4.45867e-07
4.34133e-07
4.30213e-07
4.33423e-07
4.40437e-07
4.50913e-07
4.6392e-07
4.78176e-07
4.92398e-07
5.05534e-07
5.16897e-07
5.26155e-07
5.33304e-07
5.38565e-07
5.42261e-07
5.44741e-07
5.4632e-07
5.47264e-07
5.47782e-07
5.48026e-07
5.48105e-07
5.48089e-07
5.48025e-07
5.47942e-07
5.47857e-07
5.47777e-07
5.47707e-07
5.47648e-07
5.476e-07
5.47561e-07
5.4753e-07
5.47505e-07
5.47486e-07
5.4747e-07
5.47459e-07
5.4745e-07
5.47443e-07
5.47438e-07
5.47436e-07
5.47439e-07
5.47457e-07
5.47517e-07
5.47689e-07
2.91414e-07
2.88155e-07
2.94863e-07
3.10424e-07
3.35365e-07
3.7146e-07
4.16287e-07
4.63362e-07
5.05895e-07
5.39944e-07
5.64835e-07
5.81927e-07
5.93199e-07
6.00447e-07
6.05082e-07
6.08131e-07
6.1029e-07
6.12006e-07
6.13573e-07
6.15188e-07
6.16981e-07
6.19031e-07
6.21363e-07
6.23931e-07
6.26608e-07
6.29198e-07
6.31462e-07
6.33182e-07
6.34231e-07
6.34678e-07
6.34894e-07
6.356e-07
6.37662e-07
6.41714e-07
6.47469e-07
6.52536e-07
6.55585e-07
6.56554e-07
6.55505e-07
6.52705e-07
6.48634e-07
6.43877e-07
6.3895e-07
6.34212e-07
6.29892e-07
6.26096e-07
6.22847e-07
6.20116e-07
6.17851e-07
6.15995e-07
6.1449e-07
6.1328e-07
6.12316e-07
6.11552e-07
6.10952e-07
6.10483e-07
6.10118e-07
6.09835e-07
6.09617e-07
6.09449e-07
6.09321e-07
6.09223e-07
6.09148e-07
6.09091e-07
6.09047e-07
6.09014e-07
6.08989e-07
6.0897e-07
6.08956e-07
6.08947e-07
6.08943e-07
6.08953e-07
6.08997e-07
6.09129e-07
6.09462e-07
)
;

boundaryField
{
    ibCylinder
    {
        type            immersedBoundaryNutWallFunction;
        patchType       immersedBoundary;
        blending        stepwise;
        value           nonuniform List<scalar> 0();
    }
    in
    {
        type            zeroGradient;
    }
    out
    {
        type            zeroGradient;
    }
    top
    {
        type            zeroGradient;
    }
    bottom
    {
        type            zeroGradient;
    }
    frontAndBack
    {
        type            empty;
    }
}


// ************************************************************************* //
