/*--------------------------------*- C++ -*----------------------------------*\
| =========                 |                                                 |
| \\      /  F ield         | OpenFOAM: The Open Source CFD Toolbox           |
|  \\    /   O peration     | Version:  2206                                  |
|   \\  /    A nd           | Website:  www.openfoam.com                      |
|    \\/     M anipulation  |                                                 |
\*---------------------------------------------------------------------------*/
FoamFile
{
    version     2.0;
    format      ascii;
    arch        "LSB;label=32;scalar=64";
    class       volScalarField;
    location    "0.4";
    object      omega;
}
// * * * * * * * * * * * * * * * * * * * * * * * * * * * * * * * * * * * * * //

dimensions      [0 0 -1 0 0 0 0];

internalField   nonuniform List<scalar> 
1875
(
293.474
184.575
128.056
95.0781
74.3651
60.936
52.1169
46.3308
42.5786
40.1866
38.6901
37.7732
37.2252
36.9077
36.7334
36.6484
36.621
36.6327
36.6739
36.7405
36.8323
36.9518
37.1044
37.2979
37.5434
37.8559
38.2544
38.7614
39.3984
40.1781
41.089
42.0768
43.034
43.8213
44.3145
44.4201
44.1462
43.5402
42.6964
41.731
40.7555
39.8556
39.0799
38.4435
37.9402
37.552
37.2571
37.035
36.868
36.7425
36.6481
36.5768
36.523
36.4822
36.4512
36.4277
36.4098
36.3962
36.3858
36.378
36.372
36.3675
36.3641
36.3615
36.3596
36.3581
36.357
36.3561
36.3555
36.355
36.3546
36.354
36.3529
36.3498
36.3434
293.239
189.68
135.124
102.392
81.1976
66.6838
56.5223
49.3784
44.3955
40.9773
38.6804
37.1708
36.2003
35.5887
35.2105
34.9795
34.8421
34.7633
34.7215
34.7039
34.7032
34.7168
34.7454
34.794
34.8726
34.9995
35.2038
35.5291
36.0338
36.7815
37.8126
39.089
40.445
41.6024
42.2819
42.4138
42.1569
41.5367
40.651
39.6312
38.6029
37.6622
36.8667
36.2349
35.7577
35.411
35.1661
34.996
34.8788
34.7979
34.7417
34.7022
34.6741
34.6538
34.6388
34.6277
34.6193
34.613
34.6082
34.6046
34.6018
34.5996
34.598
34.5967
34.5957
34.595
34.5944
34.594
34.5936
34.5934
34.5931
34.5927
34.5916
34.5868
34.5648
293.164
189.996
136.859
105.147
84.3542
69.8799
59.4427
51.7688
46.0976
41.9407
38.9434
36.8281
35.371
34.3911
33.7477
33.3344
33.0722
32.9077
32.8048
32.7402
32.6998
32.677
32.6722
32.6945
32.7649
32.9248
33.2468
33.8503
34.9162
36.6825
39.3747
43.0166
47.1883
50.9671
53.1565
53.1819
51.9779
49.7879
47.0342
44.1517
41.4512
39.1219
37.2417
35.8074
34.7653
34.0392
33.5512
33.2327
33.0298
32.9028
32.8242
32.776
32.7464
32.728
32.7164
32.7089
32.7039
32.7006
32.6982
32.6965
32.6952
32.6943
32.6935
32.693
32.6926
32.6922
32.692
32.6918
32.6916
32.6915
32.6914
32.6911
32.6903
32.6864
32.6679
293.088
189.326
136.379
105.224
84.9635
70.8551
60.5731
52.868
47.0289
42.6104
39.3029
36.8675
35.115
33.8855
33.045
32.4858
32.1224
31.8916
31.7478
31.6604
31.6107
31.5915
31.6086
31.6856
31.8749
32.2781
33.0778
34.5929
37.3513
42.1454
49.9404
61.3402
75.5708
90.068
99.9824
100.74
95.1661
85.6007
74.8316
64.7274
56.0369
49.0414
43.6774
39.7304
36.9307
35.0094
33.73
32.9006
32.3758
32.0508
31.8533
31.735
31.6651
31.624
31.6
31.586
31.5777
31.5727
31.5697
31.5677
31.5665
31.5656
31.565
31.5646
31.5642
31.564
31.5638
31.5637
31.5636
31.5635
31.5634
31.5632
31.5626
31.5594
31.5434
293.045
188.858
135.602
104.473
84.4303
70.5834
60.5264
52.9814
47.2243
42.8115
39.4511
36.9303
35.0787
33.7517
32.8252
32.1949
31.778
31.5101
31.344
31.247
31.201
31.2045
31.2798
31.4847
31.9402
32.8706
34.6954
38.1828
44.7148
56.6703
77.7606
112.262
160.805
220.563
276.264
292.484
263.651
211.379
162.217
124.182
95.6901
75.2364
60.7976
50.7533
43.8823
39.268
36.2284
34.2646
33.0202
32.2478
31.7766
31.4936
31.3262
31.2284
31.1719
31.1394
31.1208
31.1101
31.1039
31.1002
31.098
31.0966
31.0957
31.0951
31.0947
31.0944
31.0942
31.094
31.0939
31.0938
31.0937
31.0935
31.093
31.0901
31.0749
293.024
188.606
135.062
103.766
83.6993
69.9277
59.9955
52.5861
46.949
42.6298
39.3345
36.8517
35.0153
33.6875
32.7511
32.1075
31.6773
31.399
31.2278
31.134
31.106
31.1582
31.3451
31.7888
32.7282
34.6136
38.2999
45.4462
59.3539
86.7719
141.8
251.518
439.063
763.142
1250.65
1584.66
1302.12
808.977
476.603
297.338
192.701
132.096
95.3747
72.2159
57.3146
47.6654
41.4311
37.4354
34.9053
33.3266
32.3569
31.7706
31.4218
31.2174
31.0991
31.0315
30.9932
30.9715
30.9592
30.9521
30.9481
30.9457
30.9442
30.9433
30.9426
30.9422
30.9419
30.9417
30.9416
30.9415
30.9414
30.9412
30.9407
30.9379
30.9229
293.013
188.478
134.752
103.298
83.1364
69.3364
59.4306
52.0842
46.5292
42.2976
39.0833
36.6684
34.8846
33.5944
32.6833
32.0559
31.6352
31.3632
31.1992
31.1199
31.1277
31.2648
31.6404
32.4758
34.1935
37.5927
44.2526
57.4994
84.8981
145.866
299.761
749.447
1891.49
5430.01
14998.6
25011.6
15377.6
5647.19
1997.55
874.472
442.053
247.563
156.162
107.047
78.254
60.5715
49.462
42.4256
37.9771
35.1887
33.4627
32.4102
31.7784
31.4052
31.1879
31.0631
30.9923
30.9524
30.9301
30.9176
30.9106
30.9066
30.9043
30.9029
30.902
30.9015
30.9011
30.9008
30.9006
30.9005
30.9004
30.9002
30.8997
30.8969
30.882
293.008
188.411
134.58
103.018
82.7711
68.9197
58.9982
51.6675
46.1524
41.9758
38.8225
36.4668
34.7352
33.4878
32.6092
32.0051
31.601
31.3418
31.1922
31.1389
31.2051
31.4734
32.1278
33.5257
36.3378
41.8652
52.8589
75.7835
128.116
271.542
842.572
4610.92
39544.9
500
500
500
500
500
45446
4929.37
1386.56
549.171
272.974
162.265
108.027
77.9576
60.0633
49.0129
42.0821
37.7281
35.0125
33.3398
32.325
31.7192
31.3635
31.1579
31.0406
30.9745
30.9376
30.9172
30.9059
30.8996
30.8961
30.894
30.8928
30.8921
30.8917
30.8914
30.8912
30.891
30.8909
30.8907
30.8902
30.8875
30.8725
293.005
188.374
134.481
102.852
82.5454
68.6504
58.7054
51.3723
45.8734
41.7271
38.6123
36.2977
34.6053
33.3919
32.5408
31.9579
31.57
31.3251
31.1938
31.1762
31.3222
31.7647
32.7781
34.881
39.0544
47.3016
64.2624
102.397
204.373
616.465
4576.5
241075
500
500
500
500
500
500
500
379911
4968.6
1228.59
473.245
241.95
146.471
99.0024
72.5163
56.6987
46.9066
40.7577
36.8966
34.4937
33.0189
32.1284
31.5999
31.2915
31.1144
31.0142
30.9581
30.9271
30.9101
30.9008
30.8957
30.8928
30.8912
30.8903
30.8898
30.8894
30.8892
30.8891
30.8889
30.8888
30.8882
30.8855
30.8706
293.003
188.353
134.423
102.752
82.4073
68.4819
58.5176
51.1776
45.6844
41.5542
38.4624
36.174
34.5078
33.318
32.4869
31.92
31.5453
31.3138
31.2027
31.2276
31.4675
32.1096
33.5223
36.3953
42.0714
53.4849
78.1378
139.552
347.474
1840.62
37535.7
500
500
500
500
500
500
500
500
500
48120.7
2052.04
673.093
320.686
186.093
121.234
85.8056
64.9576
52.1384
44.0828
38.9937
35.7972
33.8146
32.6046
31.8792
31.452
31.2048
31.064
30.985
30.9412
30.9172
30.9042
30.8971
30.8933
30.8912
30.8901
30.8894
30.8891
30.8888
30.8887
30.8886
30.8884
30.8879
30.8851
30.8703
293.002
188.34
134.389
102.693
82.3247
68.3802
58.4026
51.0567
45.5651
41.4432
38.3646
36.0921
34.4422
33.2676
32.4495
31.8936
31.5288
31.3087
31.2175
31.2852
31.6191
32.4556
34.2482
37.849
44.9788
59.6482
93.0202
185.463
589.691
5206.29
500
500
500
500
500
500
500
500
500
500
500
5871.57
1393.56
486.935
239.387
144.808
98.8214
72.9755
57.2824
47.4056
41.1205
37.1362
34.641
33.1041
32.1748
31.6234
31.3021
31.1182
31.0145
30.9569
30.9254
30.9083
30.8991
30.8942
30.8916
30.8901
30.8894
30.889
30.8887
30.8886
30.8885
30.8883
30.8878
30.8851
30.8702
293.002
188.334
134.37
102.661
82.2803
68.3253
58.3403
50.9907
45.4994
41.3816
38.3101
36.0464
34.4057
33.2398
32.4293
31.8799
31.5214
31.3095
31.2338
31.3358
31.7438
32.7313
34.8173
38.9907
47.3196
64.8187
105.971
230.116
970.235
13772.7
500
500
500
500
500
500
500
500
500
500
500
16687.9
3005.9
823.011
328.697
174.34
111.365
79.6781
61.4022
50.078
42.8633
38.2553
35.3435
33.5346
32.4325
31.7742
31.3885
31.1667
31.0412
30.9713
30.9329
30.9122
30.901
30.8951
30.8919
30.8903
30.8894
30.8889
30.8887
30.8885
30.8884
30.8883
30.8878
30.885
30.8702
293.001
188.331
134.364
102.651
82.266
68.3077
58.3205
50.9699
45.4792
41.3634
38.295
36.035
34.398
33.2355
32.4278
31.8807
31.5241
31.315
31.2455
31.3618
31.801
32.8509
35.0558
39.4637
48.3237
67.2624
112.715
254.206
1216.92
22051
500
500
500
500
500
500
500
500
500
500
500
28611.9
4431.42
1099.66
400.014
196.183
119.382
83.3344
63.4351
51.3512
43.6965
38.8013
35.6955
33.7565
32.5691
31.8564
31.437
31.1947
31.0571
30.9802
30.9378
30.9148
30.9024
30.8958
30.8923
30.8904
30.8895
30.889
30.8887
30.8885
30.8884
30.8883
30.8878
30.885
30.8702
293.002
188.334
134.37
102.661
82.2803
68.3254
58.3409
50.9922
45.5027
41.3872
38.3185
36.0577
34.4195
33.2553
32.4455
31.8959
31.5364
31.3235
31.2475
31.3507
31.7624
32.7568
34.855
39.0558
47.4659
65.221
106.901
230.706
969.563
13772.7
500
500
500
500
500
500
500
500
500
500
500
16687.9
3004.33
838.484
338.201
178.741
113.264
80.5664
61.9183
50.449
43.1553
38.4847
35.517
33.6601
32.5194
31.8322
31.426
31.1902
31.0556
30.98
30.9381
30.9152
30.9028
30.8961
30.8925
30.8906
30.8896
30.8891
30.8888
30.8886
30.8885
30.8883
30.8878
30.8851
30.8702
293.002
188.34
134.389
102.693
82.3248
68.3805
58.4039
51.0598
45.5713
41.4538
38.3805
36.1134
34.468
33.2965
32.4797
31.9233
31.5567
31.3344
31.242
31.3108
31.6495
32.4962
34.3087
37.9542
45.2048
60.2099
94.2724
186.732
588.472
5206.29
500
500
500
500
500
500
500
500
500
500
500
5871.57
1394.11
504.969
248.996
149.011
100.767
74.0902
58.0796
48.0397
41.6297
37.5322
34.936
33.3148
32.3195
31.7193
31.3638
31.1568
31.0382
30.9712
30.9338
30.9132
30.902
30.8959
30.8925
30.8907
30.8897
30.8892
30.8888
30.8886
30.8885
30.8883
30.8878
30.8851
30.8702
293.003
188.353
134.423
102.752
82.4075
68.4826
58.5194
51.1821
45.6933
41.5692
38.4847
36.2039
34.5439
33.3584
32.5289
31.9612
31.5838
31.3487
31.235
31.2596
31.5033
32.1555
33.5891
36.509
42.3027
54.0236
79.4659
143.049
345.306
1840.62
37535.7
500
500
500
500
500
500
500
500
500
48120.7
2052.04
673.151
325.637
189.289
123.25
87.2778
66.1474
53.1262
44.8897
39.6305
36.2801
34.1665
32.8517
32.0468
31.5623
31.2753
31.108
31.0118
30.9573
30.9267
30.9097
30.9003
30.8951
30.8923
30.8907
30.8898
30.8892
30.8889
30.8887
30.8886
30.8884
30.8878
30.8851
30.8702
293.005
188.374
134.481
102.852
82.5458
68.6513
58.7079
51.3778
45.8844
41.7458
38.6401
36.3348
34.6501
33.4418
32.5925
32.0083
31.6166
31.3668
31.231
31.2112
31.3588
31.8088
32.8388
34.9776
39.2374
47.711
65.293
104.97
202.821
611.197
4576.5
241075
500
500
500
500
500
500
500
379911
4968.6
1230.21
472.828
242.838
148.25
100.878
74.1855
58.0972
48.0412
41.6515
37.5785
34.9964
33.3771
32.3754
31.765
31.3988
31.1823
31.0561
30.9835
30.9422
30.9188
30.9058
30.8984
30.8943
30.892
30.8906
30.8899
30.8894
30.8891
30.8889
30.8887
30.8885
30.888
30.8852
30.8703
293.008
188.411
134.58
103.018
82.7716
68.9208
59.001
51.674
46.1652
41.9977
38.855
36.5099
34.7871
33.5451
32.6681
32.062
31.6529
31.3875
31.2316
31.1739
31.2388
31.5107
32.175
33.5942
36.4569
42.1207
53.4803
77.294
130.8
268.253
834.748
4610.92
39544.9
500
500
500
500
500
45446
4929.37
1388.23
549.417
279.165
166.937
111.404
80.5125
62.0523
50.5693
43.2863
38.6399
35.6843
33.8201
32.6581
31.9436
31.5104
31.2515
31.0988
31.0098
30.9584
30.929
30.9123
30.9029
30.8975
30.8944
30.8926
30.8915
30.8908
30.8904
30.8901
30.8899
30.8898
30.8896
30.8891
30.8863
30.8714
293.013
188.478
134.752
103.299
83.1369
69.3376
59.4338
52.0917
46.544
42.3228
39.1205
36.7172
34.9424
33.6573
32.7468
32.116
31.6889
31.4092
31.2373
31.1514
31.1551
31.2918
31.6709
32.5148
34.2524
37.7061
44.5087
58.0799
85.9704
146.025
294.076
737.339
1891.49
5430.01
14998.6
25011.6
15377.6
5647.19
1997.55
875.345
442.555
255.652
162.77
111.788
81.7511
63.229
51.5004
43.9779
39.1386
36.0375
34.0668
32.8283
32.0598
31.5893
31.305
31.1354
31.0354
30.9771
30.9433
30.9238
30.9126
30.9062
30.9025
30.9003
30.8989
30.8981
30.8976
30.8972
30.897
30.8968
30.8967
30.8965
30.8959
30.8932
30.8782
293.024
188.606
135.062
103.766
83.6997
69.929
59.9994
52.5954
46.9673
42.66
39.3778
36.9066
35.0784
33.754
32.816
32.1666
31.7278
31.4401
31.2593
31.157
31.1225
31.1709
31.3568
31.8007
32.741
34.6314
38.3355
45.5215
59.4344
86.4643
140.414
244.478
426.317
759.919
1249.82
1584.36
1302.13
809.379
477.262
299.317
198.26
137.851
100.229
76.1065
60.3745
50.0348
43.2326
38.7757
35.8785
34.015
32.8306
32.0874
31.6273
31.3462
31.1767
31.0756
31.0159
30.9809
30.9605
30.9486
30.9417
30.9376
30.9351
30.9337
30.9327
30.9321
30.9317
30.9315
30.9313
30.9311
30.931
30.9308
30.9303
30.9275
30.9124
293.045
188.858
135.602
104.473
84.4307
70.5852
60.5319
52.9944
47.2484
42.8494
39.5024
36.992
35.1458
33.8182
32.8858
32.2459
31.8173
31.5378
31.3605
31.2536
31.1996
31.1975
31.2688
31.4702
31.9194
32.8365
34.634
38.0639
44.4581
56.0444
76.3332
109.051
155.291
213.651
267.933
284.45
260.456
214.286
167.516
129.492
100.715
79.625
64.4572
53.709
46.2047
41.0449
37.5517
35.223
33.6946
32.708
32.0802
31.6862
31.4423
31.2932
31.203
31.1491
31.1171
31.0981
31.087
31.0804
31.0764
31.0741
31.0726
31.0717
31.0711
31.0707
31.0704
31.0702
31.07
31.0699
31.0698
31.0697
31.0691
31.0662
31.0508
293.088
189.326
136.379
105.224
84.9639
70.8577
60.5812
52.886
47.0605
42.6567
39.3615
36.9328
35.18
33.9437
33.0915
32.5178
32.14
31.8956
31.7395
31.6417
31.5838
31.5583
31.5706
31.643
31.8254
32.2145
32.9845
34.4385
37.0722
41.6127
48.9413
59.592
72.9304
86.7002
96.3482
97.8218
93.9569
86.3019
76.7934
67.2337
58.6527
51.4837
45.7986
41.4755
38.3031
36.0463
34.4842
33.4286
32.7304
32.2774
31.9884
31.8069
31.6944
31.6254
31.5835
31.5582
31.5431
31.534
31.5285
31.5252
31.5231
31.5218
31.521
31.5204
31.52
31.5197
31.5195
31.5194
31.5193
31.5192
31.5191
31.5189
31.5182
31.515
31.4988
293.164
189.996
136.859
105.147
84.3545
69.8833
59.4534
51.7913
46.1343
41.9899
38.9995
36.8835
35.418
34.4243
33.7641
33.3338
33.0563
32.8784
32.7643
32.6908
32.6435
32.6154
32.6064
32.6246
32.6894
32.8392
33.1411
33.7056
34.6987
36.3352
38.818
42.1729
46.0463
49.6366
51.8849
52.2866
51.648
50.0611
47.7847
45.1809
42.5756
40.2009
38.188
36.5805
35.3595
34.4704
33.8455
33.4191
33.1351
32.9496
32.8304
32.7548
32.7072
32.6774
32.6587
32.647
32.6395
32.6347
32.6315
32.6294
32.6279
32.6269
32.6261
32.6256
32.6252
32.6249
32.6246
32.6244
32.6243
32.6242
32.624
32.6237
32.6228
32.6187
32.6005
293.239
189.68
135.124
102.392
81.1984
66.6883
56.5342
49.3999
44.425
41.0094
38.7077
37.1869
36.2008
35.5718
35.177
34.9318
34.7823
34.694
34.645
34.6218
34.6171
34.6275
34.6535
34.6993
34.7741
34.8945
35.087
35.3913
35.8602
36.5518
37.5037
38.6868
39.9634
41.0962
41.8398
42.1188
42.0462
41.6135
40.8794
39.9508
38.9508
37.9878
37.138
36.4377
35.8915
35.4838
35.1892
34.9814
34.8369
34.7371
34.6684
34.6209
34.5878
34.5645
34.5479
34.5359
34.5272
34.5207
34.5159
34.5123
34.5095
34.5074
34.5058
34.5046
34.5037
34.503
34.5024
34.502
34.5017
34.5014
34.5011
34.5006
34.4989
34.4927
34.4702
293.474
184.575
128.056
95.0804
74.3714
60.9486
52.1356
46.3519
42.5961
40.1941
38.6828
37.7491
37.1845
36.8523
36.6659
36.5714
36.5367
36.5431
36.5803
36.6439
36.7333
36.8508
37.0013
37.1924
37.4346
37.7418
38.1318
38.6256
39.2432
39.9968
40.8768
41.8355
42.7771
43.5747
44.1092
44.2785
44.0742
43.5315
42.733
41.7894
40.8134
39.8966
39.0954
38.4317
37.9033
37.4945
37.1841
36.951
36.7767
36.6466
36.5495
36.4768
36.4222
36.3812
36.3502
36.3268
36.309
36.2956
36.2854
36.2777
36.2719
36.2675
36.2641
36.2616
36.2597
36.2582
36.2571
36.2563
36.2556
36.2551
36.2546
36.2536
36.2505
36.2408
36.2108
)
;

boundaryField
{
    ibCylinder
    {
        type            immersedBoundaryOmegaWallFunction;
        patchType       immersedBoundary;
        blending        stepwise;
        setDeadValue    true;
        deadValue       500;
        value           nonuniform List<scalar> 0();
    }
    in
    {
        type            fixedValue;
        value           uniform 500;
    }
    out
    {
        type            inletOutlet;
        inletValue      uniform 500;
        value           nonuniform List<scalar> 
25
(
36.3434
34.5648
32.6679
31.5434
31.0749
30.9229
30.882
30.8725
30.8706
30.8703
30.8702
30.8702
30.8702
30.8702
30.8702
30.8702
30.8703
30.8714
30.8782
30.9124
31.0508
31.4988
32.6005
34.4702
36.2108
)
;
    }
    top
    {
        type            zeroGradient;
    }
    bottom
    {
        type            zeroGradient;
    }
    frontAndBack
    {
        type            empty;
    }
}


// ************************************************************************* //
