/*--------------------------------*- C++ -*----------------------------------*\
| =========                 |                                                 |
| \\      /  F ield         | OpenFOAM: The Open Source CFD Toolbox           |
|  \\    /   O peration     | Version:  2206                                  |
|   \\  /    A nd           | Website:  www.openfoam.com                      |
|    \\/     M anipulation  |                                                 |
\*---------------------------------------------------------------------------*/
FoamFile
{
    version     2.0;
    format      ascii;
    arch        "LSB;label=32;scalar=64";
    class       volScalarField;
    location    "0.4";
    object      p;
}
// * * * * * * * * * * * * * * * * * * * * * * * * * * * * * * * * * * * * * //

dimensions      [0 2 -2 0 0 0 0];

internalField   nonuniform List<scalar> 
1875
(
3.91719
3.52797
3.27721
3.17957
3.12006
3.07367
3.04056
3.01804
3.00192
2.98943
2.97909
2.96994
2.96127
2.95256
2.94331
2.93311
2.92173
2.90892
2.89437
2.87772
2.85851
2.83617
2.80994
2.77889
2.74184
2.69736
2.64377
2.57914
2.5014
2.40847
2.2986
2.17087
2.02569
1.86544
1.6938
1.51606
1.33935
1.17137
1.01639
0.877536
0.756475
0.653152
0.566559
0.495111
0.436745
0.389299
0.350735
0.31923
0.293234
0.271475
0.252946
0.236845
0.222557
0.209616
0.197669
0.186454
0.175773
0.165482
0.155471
0.145663
0.135999
0.126437
0.116948
0.10751
0.0981073
0.0887286
0.0793665
0.0700152
0.0606711
0.0513316
0.0419952
0.0326607
0.0233275
0.0139953
0.00466406
3.5423
3.38688
3.25838
3.18113
3.12809
3.08528
3.05174
3.02745
3.00925
2.99477
2.98286
2.97257
2.96308
2.95379
2.9442
2.93383
2.92231
2.90944
2.89492
2.87835
2.85927
2.83712
2.81114
2.78041
2.74376
2.69974
2.64661
2.5824
2.50493
2.41197
2.30157
2.17262
2.0256
1.86303
1.68871
1.50864
1.33141
1.16353
1.00917
0.871465
0.751796
0.649613
0.563817
0.493059
0.435249
0.388231
0.349994
0.31874
0.292926
0.271297
0.252861
0.236823
0.222572
0.209653
0.197718
0.186507
0.175826
0.165532
0.155517
0.145703
0.136033
0.126467
0.116973
0.107531
0.0981242
0.0887425
0.0793776
0.0700241
0.0606781
0.0513371
0.0419994
0.0326638
0.0233296
0.0139966
0.00466425
3.36562
3.31531
3.24487
3.18637
3.13897
3.09826
3.06533
3.03942
3.0189
3.0024
2.98897
2.97745
2.96697
2.957
2.94703
2.93653
2.92506
2.91235
2.89819
2.88219
2.86389
2.84272
2.81796
2.78865
2.75366
2.71148
2.66023
2.59768
2.52129
2.42832
2.31621
2.18301
2.02909
1.8579
1.67375
1.48442
1.30219
1.13208
0.978168
0.843528
0.728402
0.630954
0.549336
0.482091
0.427118
0.382309
0.345747
0.315744
0.290831
0.269854
0.251902
0.236197
0.222168
0.209406
0.197577
0.186435
0.1758
0.165534
0.155535
0.145729
0.136062
0.126496
0.117001
0.107556
0.0981464
0.0887616
0.0793938
0.0700375
0.0606891
0.0513459
0.0420062
0.0326689
0.0233332
0.0139988
0.00466473
3.28647
3.26561
3.22073
3.17671
3.13878
3.10551
3.07635
3.05046
3.02955
3.01248
2.99781
2.98487
2.97327
2.96261
2.95225
2.94163
2.93046
2.91828
2.90493
2.8901
2.87338
2.85427
2.83201
2.8056
2.77383
2.73525
2.68786
2.62888
2.55502
2.46249
2.34733
2.20546
2.03704
1.84797
1.64355
1.43708
1.2434
1.06734
0.91371
0.785474
0.679655
0.592267
0.519805
0.460116
0.411063
0.370743
0.33751
0.309973
0.286718
0.266973
0.249978
0.234908
0.221294
0.208842
0.197225
0.186223
0.175687
0.165486
0.155525
0.14574
0.136085
0.126524
0.117031
0.107585
0.098174
0.0887862
0.079415
0.0700556
0.0607041
0.0513581
0.0420158
0.0326762
0.0233383
0.0140019
0.00466571
3.23418
3.2234
3.19596
3.16403
3.13426
3.10703
3.08198
3.05905
3.03954
3.02256
3.00711
2.99347
2.98133
2.97022
2.95957
2.94889
2.93786
2.92645
2.91428
2.90101
2.88636
2.87002
2.85138
2.82964
2.80286
2.76948
2.72795
2.67481
2.60559
2.51478
2.39587
2.23913
2.04704
1.8268
1.58654
1.35837
1.15059
0.962978
0.808928
0.691969
0.60236
0.532762
0.475172
0.427426
0.387636
0.354164
0.325786
0.301645
0.280848
0.262954
0.247352
0.233081
0.219982
0.207975
0.196655
0.18585
0.175469
0.165376
0.155478
0.145729
0.136096
0.126548
0.117061
0.107617
0.098205
0.0888145
0.07944
0.0700771
0.0607222
0.0513729
0.0420276
0.0326853
0.0233447
0.0140059
0.00466727
3.1981
3.19193
3.17454
3.15177
3.12854
3.10612
3.08481
3.06469
3.04623
3.02991
3.01534
3.00175
2.98919
2.97776
2.96701
2.95649
2.94612
2.93579
2.92513
2.91396
2.9022
2.88936
2.87488
2.85834
2.83821
2.81262
2.77962
2.7355
2.67454
2.58868
2.46684
2.29463
2.08353
1.84068
1.52906
1.252
1.02617
0.820003
0.656737
0.556184
0.490065
0.448721
0.413228
0.382335
0.355525
0.331623
0.309891
0.290364
0.273074
0.257576
0.243442
0.23024
0.218098
0.20685
0.195956
0.185377
0.175157
0.165178
0.155357
0.145659
0.136062
0.12654
0.117068
0.107635
0.0982269
0.0888371
0.0794614
0.0700964
0.060739
0.0513871
0.0420392
0.0326942
0.0233512
0.0140099
0.00466901
3.17279
3.16888
3.15711
3.14043
3.12218
3.10372
3.08548
3.06786
3.05127
3.0359
3.02159
3.00821
2.99596
2.9847
2.97403
2.96402
2.95465
2.94556
2.93664
2.92792
2.91931
2.91043
2.9009
2.89043
2.87817
2.86253
2.84127
2.81057
2.76384
2.69086
2.57306
2.41263
2.17334
1.98092
1.57115
1.17089
0.905072
0.645742
0.43143
0.365464
0.345102
0.338906
0.334835
0.32554
0.315298
0.30357
0.290269
0.276612
0.263354
0.250589
0.238338
0.226769
0.215811
0.205201
0.194823
0.184674
0.174744
0.164946
0.155222
0.145576
0.136019
0.126525
0.117072
0.107646
0.0982399
0.0888512
0.0794762
0.0701108
0.0607523
0.0513987
0.0420488
0.0327019
0.0233568
0.0140134
0.00467074
3.15457
3.15182
3.14332
3.13068
3.11607
3.10065
3.08494
3.06938
3.05431
3.03992
3.02636
3.01364
3.00187
2.99094
2.98068
2.97129
2.96279
2.955
2.94792
2.94166
2.93618
2.93139
2.92738
2.92404
2.92084
2.91676
2.91012
2.89765
2.87303
2.82616
2.73121
2.61317
2.29627
0
0
0
0
0
0.40859
0.210424
0.201243
0.218594
0.248957
0.264261
0.271405
0.272582
0.268588
0.261207
0.252279
0.242702
0.232843
0.222937
0.213003
0.203138
0.193393
0.183724
0.17409
0.16451
0.15497
0.145445
0.135951
0.126499
0.117073
0.107657
0.0982515
0.0888639
0.0794901
0.0701247
0.0607651
0.0514099
0.0420582
0.0327093
0.0233625
0.0140172
0.00467285
3.14137
3.13928
3.13276
3.12278
3.11079
3.09766
3.0839
3.06995
3.05615
3.04276
3.02995
3.01783
3.0065
2.99599
2.98634
2.97763
2.97
2.96349
2.9582
2.9543
2.95196
2.95142
2.95296
2.95682
2.96303
2.97141
2.98133
2.99115
2.99735
2.98299
2.91635
2.9378
0
0
0
0
0
0
0
0.138555
0.0983397
0.113683
0.163949
0.205229
0.227896
0.241084
0.246393
0.245572
0.24113
0.234731
0.227161
0.218869
0.210141
0.201127
0.191948
0.182689
0.173339
0.163956
0.15459
0.145212
0.13581
0.126406
0.117018
0.107638
0.0982505
0.0888696
0.0795001
0.070137
0.060777
0.0514201
0.0420667
0.0327162
0.0233679
0.0140208
0.00467496
3.132
3.13029
3.125
3.11675
3.10656
3.0951
3.08279
3.07004
3.05725
3.04467
3.0325
3.02091
3.01003
2.99999
2.99088
2.98282
2.97599
2.97063
2.96694
2.96517
2.96568
2.96894
2.97553
2.98609
3.00125
3.02166
3.04779
3.07962
3.11137
3.13288
3.37862
0
0
0
0
0
0
0
0
0
-0.0509923
0.0242909
0.0883088
0.151072
0.189226
0.213081
0.226284
0.231242
0.230887
0.227384
0.221896
0.215102
0.207447
0.199209
0.190594
0.181724
0.172669
0.1635
0.154267
0.14498
0.135651
0.126296
0.116939
0.107584
0.0982229
0.0888574
0.0794943
0.0701373
0.0607815
0.0514249
0.0420713
0.0327205
0.0233715
0.0140233
0.00467649
3.12572
3.12425
3.1197
3.11253
3.1035
3.09315
3.08184
3.06995
3.05786
3.04588
3.0342
3.02301
3.01251
3.00286
2.9942
2.9867
2.98051
2.97603
2.97359
2.97352
2.9763
2.98261
2.99329
3.00936
3.03199
3.06257
3.10242
3.15163
3.19669
3.22761
0
0
0
0
0
0
0
0
0
0
0
-0.0631662
0.022294
0.107309
0.159286
0.191386
0.210541
0.219873
0.222702
0.221493
0.217659
0.212061
0.205266
0.197656
0.189489
0.180938
0.172118
0.163118
0.153997
0.144789
0.135521
0.126214
0.116886
0.107547
0.0981976
0.0888421
0.0794848
0.0701302
0.0607772
0.0514238
0.0420715
0.0327211
0.0233725
0.0140243
0.0046775
3.12211
3.12077
3.11661
3.11002
3.10165
3.09194
3.08122
3.06984
3.05817
3.04654
3.03516
3.02423
3.01396
3.00456
2.9962
2.9891
2.9834
2.97941
2.97775
2.97877
2.98302
2.9913
3.00467
3.02439
3.05204
3.0895
3.13884
3.20134
3.26801
3.34869
0
0
0
0
0
0
0
0
0
0
0
-0.146042
-0.0310738
0.0779723
0.139971
0.177093
0.200397
0.212613
0.217458
0.217698
0.214921
0.210089
0.203849
0.196641
0.188764
0.180421
0.171754
0.162862
0.153816
0.144662
0.135434
0.126157
0.116848
0.107521
0.0981802
0.0888317
0.0794795
0.0701267
0.0607745
0.0514223
0.0420707
0.0327205
0.0233718
0.0140233
0.00467723
3.12092
3.11962
3.11559
3.10918
3.10102
3.09152
3.08099
3.06978
3.05826
3.04674
3.03547
3.02462
3.01443
3.0051
2.99683
2.98991
2.98443
2.98056
2.97915
2.98055
2.98531
2.99428
3.00857
3.02955
3.05892
3.09874
3.15127
3.21716
3.28073
3.53222
0
0
0
0
0
0
0
0
0
0
0
-0.170467
-0.0525601
0.0671821
0.133399
0.172033
0.196868
0.210116
0.215653
0.216388
0.21397
0.209403
0.203353
0.196284
0.188507
0.180237
0.171622
0.162768
0.153749
0.144614
0.1354
0.126133
0.116832
0.107509
0.0981717
0.088826
0.0794758
0.0701241
0.0607724
0.0514208
0.0420698
0.0327198
0.0233713
0.0140227
0.00467694
3.12208
3.12074
3.11658
3.10999
3.10163
3.09191
3.08119
3.06981
3.05815
3.04652
3.03514
3.02421
3.01394
3.00453
2.99618
2.98908
2.98337
2.97939
2.97773
2.97875
2.983
2.99128
3.00465
3.02437
3.05201
3.08948
3.13883
3.20134
3.26803
3.34875
0
0
0
0
0
0
0
0
0
0
0
-0.146092
-0.0311046
0.0779476
0.139945
0.177068
0.200376
0.212593
0.217438
0.217679
0.214902
0.21007
0.203831
0.196624
0.188748
0.180406
0.17174
0.162849
0.153804
0.144651
0.135424
0.126148
0.11684
0.107513
0.0981734
0.0888256
0.0794741
0.0701219
0.0607703
0.0514188
0.0420679
0.0327183
0.0233702
0.0140224
0.00467687
3.12567
3.1242
3.11965
3.11247
3.10345
3.0931
3.08179
3.0699
3.05782
3.04584
3.03415
3.02297
3.01246
3.00281
2.99416
2.98666
2.98047
2.97599
2.97355
2.97348
2.97626
2.98257
2.99325
3.00931
3.03194
3.06252
3.10237
3.15161
3.1967
3.22766
0
0
0
0
0
0
0
0
0
0
0
-0.0632395
0.0222336
0.107257
0.159236
0.19134
0.210498
0.219832
0.222661
0.221453
0.21762
0.212024
0.205231
0.197622
0.189457
0.180908
0.172091
0.163093
0.153974
0.144768
0.135501
0.126196
0.116869
0.107531
0.0981841
0.08883
0.079474
0.0701206
0.060769
0.0514169
0.0420659
0.0327167
0.0233693
0.0140224
0.00467678
3.13192
3.13022
3.12493
3.11667
3.10649
3.09502
3.08271
3.06997
3.05718
3.0446
3.03244
3.02084
3.00996
2.99992
2.99081
2.98276
2.97593
2.97057
2.96688
2.96511
2.96562
2.96888
2.97547
2.98601
3.00117
3.02157
3.04771
3.07956
3.11133
3.13286
3.37859
0
0
0
0
0
0
0
0
0
-0.0511304
0.0241796
0.0882224
0.150993
0.189153
0.213014
0.226218
0.231177
0.230825
0.227324
0.221838
0.215047
0.207395
0.19916
0.190547
0.18168
0.172629
0.163463
0.154232
0.144948
0.135621
0.126269
0.116914
0.107562
0.0982029
0.0888395
0.0794783
0.0701232
0.0607694
0.0514147
0.0420629
0.0327139
0.0233668
0.0140205
0.00467546
3.14128
3.13918
3.13266
3.12268
3.11069
3.09756
3.0838
3.06985
3.05606
3.04267
3.02986
3.01774
3.00641
2.9959
2.98625
2.97755
2.96992
2.96341
2.95812
2.95422
2.95188
2.95133
2.95287
2.95672
2.96293
2.9713
2.98122
2.99104
2.99726
2.9829
2.91622
2.93755
0
0
0
0
0
0
0
0.138384
0.098164
0.113552
0.163843
0.205125
0.2278
0.240993
0.246306
0.245487
0.241048
0.234652
0.227086
0.218797
0.210073
0.201062
0.191888
0.182632
0.173286
0.163908
0.154545
0.14517
0.135772
0.12637
0.116986
0.107608
0.0982242
0.0888461
0.0794792
0.0701186
0.0607611
0.0514067
0.0420557
0.0327077
0.0233617
0.0140171
0.00467361
3.15445
3.1517
3.1432
3.13056
3.11595
3.10053
3.08483
3.06926
3.0542
3.03981
3.02625
3.01354
3.00176
2.99083
2.98057
2.97119
2.96269
2.9549
2.94782
2.94156
2.93607
2.93128
2.92726
2.92392
2.9207
2.91662
2.90997
2.8975
2.87289
2.82601
2.73103
2.61293
2.2958
0
0
0
0
0
0.408336
0.210189
0.201016
0.218436
0.248827
0.264139
0.271288
0.272471
0.268481
0.261103
0.252179
0.242605
0.23275
0.222849
0.21292
0.203059
0.19332
0.183655
0.174026
0.16445
0.154915
0.145394
0.135905
0.126456
0.117034
0.107622
0.0982195
0.0888352
0.0794646
0.0701023
0.0607458
0.0513935
0.0420448
0.0326989
0.023355
0.0140126
0.00467122
3.17265
3.16874
3.15697
3.14029
3.12204
3.10358
3.08535
3.06773
3.05114
3.03577
3.02146
3.00808
2.99584
2.98458
2.9739
2.9639
2.95453
2.94544
2.93651
2.9278
2.91918
2.9103
2.90075
2.89028
2.87801
2.86236
2.84109
2.81039
2.76365
2.69068
2.57285
2.41238
2.17304
1.98064
1.57082
1.17058
0.904826
0.645492
0.431173
0.365216
0.344883
0.338723
0.334677
0.325397
0.315163
0.303441
0.290144
0.276491
0.263237
0.250476
0.238231
0.226667
0.215714
0.20511
0.194738
0.184594
0.174669
0.164877
0.155159
0.145517
0.135964
0.126476
0.117026
0.107605
0.0982027
0.0888178
0.0794465
0.0700848
0.0607298
0.0513797
0.0420333
0.0326897
0.0233482
0.0140082
0.00466891
3.19794
3.19177
3.17438
3.15161
3.12838
3.10597
3.08465
3.06454
3.04608
3.02976
3.0152
3.00161
2.98905
2.97762
2.96687
2.95635
2.94598
2.93566
2.92499
2.91382
2.90205
2.8892
2.87471
2.85816
2.83802
2.81242
2.77942
2.73528
2.67433
2.58847
2.46661
2.29437
2.08329
1.8404
1.52874
1.2517
1.02591
0.819744
0.656484
0.555948
0.489854
0.448528
0.413053
0.382173
0.355371
0.331476
0.30975
0.290228
0.272942
0.257449
0.24332
0.230124
0.21799
0.206748
0.19586
0.185287
0.175074
0.165101
0.155285
0.145592
0.136002
0.126484
0.117017
0.107588
0.0981851
0.0887995
0.079428
0.0700671
0.0607138
0.0513658
0.0420217
0.0326806
0.0233415
0.0140041
0.004667
3.23401
3.22323
3.19579
3.16385
3.13409
3.10686
3.08181
3.05888
3.03937
3.0224
3.00695
2.99331
2.98118
2.97007
2.95942
2.94874
2.93771
2.9263
2.91412
2.90085
2.88619
2.86985
2.8512
2.82944
2.80265
2.76925
2.72771
2.67457
2.60535
2.51453
2.39562
2.23887
2.04678
1.82653
1.58625
1.35809
1.15033
0.962731
0.808687
0.691743
0.60215
0.532562
0.474984
0.427251
0.387471
0.354005
0.325634
0.301497
0.280706
0.262817
0.24722
0.232955
0.219863
0.207863
0.19655
0.185752
0.175377
0.165291
0.1554
0.145657
0.13603
0.126487
0.117005
0.107567
0.0981593
0.0887735
0.0794036
0.0700451
0.0606946
0.0513496
0.0420086
0.0326705
0.0233342
0.0139997
0.00466508
3.28628
3.26543
3.22054
3.17652
3.13859
3.10533
3.07617
3.05028
3.02938
3.01231
2.99764
2.9847
2.9731
2.96245
2.95209
2.94147
2.9303
2.91811
2.90476
2.88992
2.87319
2.85408
2.83181
2.80538
2.7736
2.73501
2.6876
2.62861
2.55475
2.46222
2.34707
2.20519
2.03677
1.8477
1.64328
1.43681
1.24314
1.0671
0.913473
0.785246
0.679439
0.592062
0.519611
0.459933
0.41089
0.370577
0.33735
0.309817
0.286567
0.266828
0.249838
0.234775
0.221168
0.208723
0.197113
0.186119
0.17559
0.165396
0.155441
0.145663
0.136014
0.126459
0.116971
0.107531
0.0981251
0.0887424
0.0793761
0.0700214
0.0606746
0.0513332
0.0419955
0.0326605
0.0233271
0.0139953
0.0046634
3.36543
3.31512
3.24467
3.18618
3.13878
3.09807
3.06514
3.03923
3.01872
3.00222
2.9888
2.97728
2.96679
2.95683
2.94686
2.93636
2.92488
2.91218
2.89801
2.882
2.86369
2.84251
2.81774
2.78841
2.75341
2.71122
2.65996
2.5974
2.52101
2.42804
2.31593
2.18273
2.02881
1.85763
1.67349
1.48415
1.30193
1.13183
0.977927
0.843297
0.728182
0.630745
0.549138
0.481904
0.42694
0.382138
0.345582
0.315583
0.290675
0.269702
0.251756
0.236058
0.222037
0.209282
0.197461
0.186326
0.175698
0.16544
0.155448
0.145648
0.135988
0.126428
0.116938
0.107499
0.0980954
0.0887158
0.079353
0.0700017
0.0606582
0.0513199
0.041985
0.0326525
0.0233215
0.0139919
0.00466233
3.54211
3.38668
3.25819
3.18093
3.12789
3.08508
3.05155
3.02726
3.00906
2.99458
2.98268
2.97239
2.9629
2.95361
2.94403
2.93366
2.92213
2.90926
2.89473
2.87816
2.85907
2.8369
2.81091
2.78017
2.74351
2.69947
2.64633
2.58211
2.50464
2.41168
2.30129
2.17234
2.02533
1.86276
1.68844
1.50838
1.33115
1.16328
1.00893
0.871233
0.751573
0.649402
0.563616
0.492868
0.435067
0.388057
0.349826
0.318576
0.292767
0.271143
0.252713
0.236681
0.222438
0.209526
0.197599
0.186395
0.175722
0.165435
0.155427
0.14562
0.135957
0.126397
0.116909
0.107473
0.0980718
0.0886954
0.0793357
0.0699873
0.0606464
0.0513104
0.0419776
0.0326469
0.0233176
0.0139895
0.00466179
3.91699
3.52777
3.27701
3.17937
3.11986
3.07347
3.04036
3.01785
3.00173
2.98925
2.97891
2.96976
2.96109
2.95239
2.94314
2.93294
2.92155
2.90873
2.89418
2.87752
2.8583
2.83594
2.80971
2.77864
2.74158
2.69709
2.64349
2.57885
2.5011
2.40818
2.29831
2.17059
2.02541
1.86516
1.69353
1.51579
1.3391
1.17112
1.01614
0.877302
0.756251
0.65294
0.566356
0.49492
0.436563
0.389125
0.350566
0.319067
0.293074
0.271321
0.252796
0.236702
0.222422
0.209488
0.197549
0.186341
0.175668
0.165384
0.155381
0.145579
0.135922
0.126367
0.116884
0.107452
0.0980543
0.0886811
0.0793241
0.0699779
0.0606389
0.0513045
0.0419731
0.0326436
0.0233153
0.0139879
0.00466153
)
;

boundaryField
{
    ibCylinder
    {
        type            zeroGradientIb;
        patchType       immersedBoundary;
        setDeadValue    true;
        deadValue       0;
        value           nonuniform List<scalar> 0();
    }
    in
    {
        type            zeroGradient;
    }
    out
    {
        type            fixedValue;
        value           uniform 0;
    }
    top
    {
        type            zeroGradient;
    }
    bottom
    {
        type            zeroGradient;
    }
    frontAndBack
    {
        type            empty;
    }
}


// ************************************************************************* //
