/*--------------------------------*- C++ -*----------------------------------*\
| =========                 |                                                 |
| \\      /  F ield         | OpenFOAM: The Open Source CFD Toolbox           |
|  \\    /   O peration     | Version:  2206                                  |
|   \\  /    A nd           | Website:  www.openfoam.com                      |
|    \\/     M anipulation  |                                                 |
\*---------------------------------------------------------------------------*/
FoamFile
{
    version     2.0;
    format      ascii;
    arch        "LSB;label=32;scalar=64";
    class       surfaceScalarField;
    location    "0.4";
    object      phi;
}
// * * * * * * * * * * * * * * * * * * * * * * * * * * * * * * * * * * * * * //

dimensions      [0 3 -1 0 0 0 0];

oriented        oriented;

internalField   nonuniform List<scalar> 
3650
(
0.00275139
0.000448613
0.0022449
0.000506487
0.00181664
0.000428259
0.00148643
0.000330216
0.00124463
0.000241797
0.00107571
0.00016892
0.000959713
0.000116001
0.000881489
7.82248e-05
0.0008298
5.16888e-05
0.000796462
3.33388e-05
0.000776193
2.02688e-05
0.000765332
1.08617e-05
0.000761162
4.17045e-06
0.000761674
-5.11815e-07
0.000765438
-3.76295e-06
0.000771867
-6.42857e-06
0.000780763
-8.89593e-06
0.000792161
-1.13972e-05
0.000806338
-1.41764e-05
0.000823784
-1.74459e-05
0.000845179
-2.13954e-05
0.000871366
-2.6186e-05
0.0009033
-3.19335e-05
0.000941993
-3.86927e-05
0.000988462
-4.64689e-05
0.00104361
-5.51471e-05
0.00110807
-6.44595e-05
0.00118194
-7.38756e-05
0.00126441
-8.24666e-05
0.0013532
-8.879e-05
0.00144398
-9.07806e-05
0.00152987
-8.5891e-05
0.00160207
-7.22031e-05
0.00165135
-4.92752e-05
0.00167015
-1.88015e-05
0.00165752
1.26242e-05
0.00161261
4.49106e-05
0.00154101
7.16036e-05
0.0014512
8.98098e-05
0.00135292
9.82815e-05
0.00125492
9.80001e-05
0.00116339
9.15334e-05
0.0010819
8.14846e-05
0.00101217
6.97365e-05
0.000954307
5.78602e-05
0.000907446
4.68599e-05
0.000870198
3.72499e-05
0.000840998
2.91993e-05
0.000818344
2.26557e-05
0.000800912
1.74323e-05
0.000787597
1.33166e-05
0.000777477
1.01194e-05
0.000769815
7.66335e-06
0.00076403
5.78487e-06
0.000759675
4.35503e-06
0.000756405
3.27034e-06
0.000753956
2.44894e-06
0.000752128
1.82805e-06
0.000750767
1.36116e-06
0.000749756
1.01151e-06
0.000749005
7.50427e-07
0.00074845
5.55554e-07
0.000748039
4.10396e-07
0.000747737
3.02309e-07
0.000747515
2.22119e-07
0.000747352
1.62687e-07
0.000747233
1.18887e-07
0.000747147
8.66025e-08
0.000747084
6.29904e-08
0.000747038
4.56666e-08
0.000747005
3.31391e-08
0.000746981
2.40371e-08
0.000746963
1.76298e-08
0.00074695
1.3271e-08
1.09359e-08
0.00336541
0.000283206
0.00335163
0.000520265
0.00323433
0.000545563
0.00305944
0.000505104
0.00285714
0.000444094
0.00265877
0.000367296
0.002486
0.000288767
0.00234568
0.000218548
0.00223749
0.000159873
0.00215763
0.000113209
0.00210182
7.60719e-05
0.00206537
4.73138e-05
0.00204374
2.58038e-05
0.00203337
9.85651e-06
0.00203147
-1.859e-06
0.00203598
-1.09396e-05
0.00204585
-1.87684e-05
0.00206076
-2.6306e-05
0.00208073
-3.41458e-05
0.00210621
-4.29305e-05
0.00213804
-5.32183e-05
0.00217734
-6.54843e-05
0.00222546
-8.00579e-05
0.00228388
-9.71106e-05
0.00235417
-0.000116755
0.00243781
-0.000138789
0.00253608
-0.000162734
0.00264975
-0.000187541
0.0027785
-0.000211215
0.00292016
-0.000230459
0.00306971
-0.000240325
0.0032175
-0.00023369
0.00334963
-0.000204332
0.00345039
-0.000150038
0.00350505
-7.3454e-05
0.00350576
1.19071e-05
0.00345208
9.85966e-05
0.00334838
0.0001753
0.00320697
0.000231218
0.00304444
0.000260819
0.00287704
0.000265401
0.00271782
0.000250753
0.00257502
0.000224279
0.00245245
0.000192311
0.00235072
0.00015959
0.00226844
0.00012914
0.00220316
0.000102527
0.00215208
8.02855e-05
0.00211246
6.22716e-05
0.00208196
4.79338e-05
0.00205863
3.66519e-05
0.00204084
2.7906e-05
0.00202731
2.11936e-05
0.00201704
1.60541e-05
0.00200926
1.21349e-05
0.00200338
9.15563e-06
0.00199893
6.89141e-06
0.00199559
5.17315e-06
0.00199308
3.87533e-06
0.00199119
2.89899e-06
0.00198977
2.1658e-06
0.00198871
1.61541e-06
0.00198792
1.20271e-06
0.00198733
8.93566e-07
0.00198689
6.62533e-07
0.00198656
4.90223e-07
0.00198632
3.62001e-07
0.00198614
2.6668e-07
0.00198601
1.95994e-07
0.00198591
1.43705e-07
0.00198584
1.0518e-07
0.00198578
7.71053e-08
0.00198574
5.63917e-08
0.00198571
4.26945e-08
3.12522e-08
0.00332639
0.00015682
0.00346222
0.000384427
0.00352948
0.000478307
0.00353859
0.000495995
0.00350395
0.000478736
0.00343627
0.00043498
0.00334799
0.000377048
0.00325115
0.000315388
0.00315857
0.000252452
0.0030783
0.000193473
0.00301368
0.000140692
0.00296488
9.61193e-05
0.00293025
6.0434e-05
0.00290791
3.21981e-05
0.00289594
1.01051e-05
0.00289235
-7.34678e-06
0.00289557
-2.19836e-05
0.00290491
-3.5649e-05
0.00292028
-4.95123e-05
0.0029418
-6.44559e-05
0.00297007
-8.1488e-05
0.00300611
-0.000101525
0.00305125
-0.000125192
0.00310689
-0.000152749
0.00317487
-0.000184732
0.00325722
-0.000221144
0.00335615
-0.000261663
0.0034738
-0.000305189
0.00361176
-0.000349174
0.00377013
-0.000388829
0.0039456
-0.000415799
0.00412809
-0.00041618
0.00430129
-0.000377531
0.00444588
-0.000294633
0.00453797
-0.000165541
0.00456176
-1.18861e-05
0.00451912
0.000141241
0.00441273
0.000281693
0.00425579
0.000388153
0.00406856
0.000448049
0.00387148
0.000462486
0.00368193
0.000440299
0.0035116
0.000394611
0.00336586
0.000338047
0.00324567
0.000279787
0.00314925
0.000225553
0.00307347
0.000178308
0.0030147
0.000139061
0.00296943
0.000107541
0.00293478
8.25879e-05
0.00290842
6.30047e-05
0.00288841
4.79233e-05
0.00287319
3.64143e-05
0.00286163
2.76068e-05
0.00285287
2.09004e-05
0.00284622
1.58073e-05
0.00284118
1.19302e-05
0.00283737
8.98083e-06
0.0028345
6.74962e-06
0.00283233
5.06835e-06
0.00283069
3.80235e-06
0.00282946
2.84876e-06
0.00282853
2.13102e-06
0.00282783
1.59121e-06
0.00282731
1.18614e-06
0.00282692
8.82797e-07
0.00282662
6.55972e-07
0.0028264
4.86415e-07
0.00282624
3.59868e-07
0.00282612
2.65654e-07
0.00282603
1.9568e-07
0.00282596
1.44346e-07
0.00282591
1.05822e-07
0.00282587
8.01686e-08
5.64128e-08
0.00326304
9.37836e-05
0.0033901
0.000257367
0.00350582
0.000362585
0.00358695
0.000414864
0.0036374
0.000428291
0.00365881
0.000413567
0.00365268
0.000383176
0.00362753
0.000340543
0.00359038
0.000289604
0.00354695
0.000236902
0.00350268
0.000184959
0.00346244
0.000136364
0.0034291
9.37692e-05
0.00340376
5.7538e-05
0.00338645
2.74217e-05
0.00337644
2.65702e-06
0.00337314
-1.86825e-05
0.00337565
-3.81547e-05
0.00338398
-5.78422e-05
0.00339818
-7.86611e-05
0.00341871
-0.000102018
0.00344661
-0.000129417
0.00348326
-0.000161848
0.00352977
-0.000199254
0.00358793
-0.000242897
0.00366102
-0.000294227
0.00375263
-0.000353278
0.00386694
-0.000419497
0.00400866
-0.000490897
0.00418199
-0.000562164
0.00438671
-0.00062051
0.00460823
-0.000637701
0.0048236
-0.000592902
0.00501046
-0.0004815
0.0051344
-0.00028948
0.00517553
-5.30135e-05
0.00513892
0.00017785
0.00502638
0.000394232
0.00485291
0.000561632
0.0046431
0.000657854
0.0044211
0.000684489
0.0042083
0.000653096
0.00401884
0.000584075
0.00385891
0.000497979
0.00372911
0.000409578
0.00362685
0.000327815
0.00354798
0.000257182
0.00348794
0.000199104
0.00344228
0.000153194
0.00340783
0.000117045
0.00338206
8.87757e-05
0.00336268
6.73035e-05
0.003348
5.10969e-05
0.00333692
3.86847e-05
0.00332854
2.92828e-05
0.00332217
2.21738e-05
0.00331735
1.6754e-05
0.0033137
1.26234e-05
0.00331095
9.50181e-06
0.00330887
7.15203e-06
0.00330729
5.38082e-06
0.00330609
4.04383e-06
0.00330519
3.03475e-06
0.00330451
2.27354e-06
0.00330399
1.70076e-06
0.0033036
1.27086e-06
0.00330331
9.48406e-07
0.00330309
7.06443e-07
0.00330293
5.25069e-07
0.0033028
3.89464e-07
0.00330271
2.88268e-07
0.00330264
2.13565e-07
0.00330259
1.57036e-07
0.00330255
1.19059e-07
8.22608e-08
0.0032333
6.04797e-05
0.00331542
0.000175249
0.00341518
0.000262824
0.00351065
0.0003194
0.00358997
0.000348967
0.00364782
0.000355719
0.00368529
0.000345708
0.00370544
0.000320394
0.00370951
0.000285534
0.00370146
0.00024495
0.00368647
0.00019995
0.00366761
0.000155228
0.00364752
0.000113859
0.0036289
7.61587e-05
0.00361373
4.25886e-05
0.00360288
1.35056e-05
0.00359638
-1.2181e-05
0.00359455
-3.63188e-05
0.0035974
-6.07001e-05
0.00360499
-8.62472e-05
0.00361752
-0.000114543
0.00363614
-0.000148041
0.00366245
-0.000188156
0.00369774
-0.000234548
0.00374473
-0.000289888
0.00380755
-0.000357045
0.00389066
-0.000436383
0.00400072
-0.000529561
0.00414664
-0.000636822
0.00433807
-0.000753584
0.00457526
-0.000857704
0.00482806
-0.000890499
0.00506817
-0.000833013
0.00526374
-0.000677076
0.00538078
-0.000406522
0.00541409
-8.6314e-05
0.00537847
0.00021347
0.00527155
0.000501145
0.00509749
0.000735695
0.00488238
0.000872964
0.00465129
0.000915577
0.00442869
0.000875697
0.00422942
0.000783353
0.00406314
0.000664251
0.00393109
0.000541632
0.0038297
0.000429198
0.00375343
0.000333456
0.00369676
0.000255772
0.00365504
0.00019492
0.00362447
0.000147613
0.00360207
0.000111172
0.00358539
8.39887e-05
0.00357283
6.3659e-05
0.0035635
4.80081e-05
0.00355649
3.62958e-05
0.00355116
2.75083e-05
0.00354713
2.0777e-05
0.00354412
1.56359e-05
0.00354185
1.17693e-05
0.00354013
8.87104e-06
0.00353883
6.68782e-06
0.00353783
5.03736e-06
0.00353708
3.78887e-06
0.00353651
2.84416e-06
0.00353608
2.13209e-06
0.00353575
1.59765e-06
0.0035355
1.19604e-06
0.00353532
8.93767e-07
0.00353517
6.66381e-07
0.00353507
4.95947e-07
0.00353499
3.6838e-07
0.00353493
2.73691e-07
0.00353488
2.01767e-07
0.00353485
1.52905e-07
1.04324e-07
0.00321896
4.15224e-05
0.00327086
0.000123349
0.00334249
0.000191197
0.00342142
0.000240467
0.00349833
0.000272052
0.00356628
0.000287775
0.00362244
0.00028955
0.00366448
0.00027835
0.00369243
0.000257583
0.00370812
0.000229262
0.00371314
0.000194927
0.00371136
0.000157013
0.00370559
0.000119627
0.00369751
8.42402e-05
0.00368908
5.10161e-05
0.00368163
2.0957e-05
0.00367588
-6.4312e-06
0.00367249
-3.29238e-05
0.00367172
-5.99292e-05
0.00367379
-8.83207e-05
0.00367915
-0.000119903
0.00368914
-0.000158024
0.00370516
-0.000204182
0.00372963
-0.000259021
0.00376513
-0.000325378
0.00381486
-0.000406783
0.00388522
-0.000506738
0.00398499
-0.000629335
0.00412617
-0.000777997
0.00432209
-0.000949509
0.0045515
-0.00108711
0.00476332
-0.00110232
0.00493253
-0.00100222
0.00500974
-0.000754284
0.00494471
-0.000341488
0.0048946
-3.62014e-05
0.00490983
0.000198235
0.00490436
0.000506619
0.00485127
0.000788777
0.00474232
0.000981919
0.00458351
0.00107439
0.00440788
0.00105133
0.00423132
0.000959912
0.00407811
0.000817463
0.00395722
0.000662518
0.00386677
0.000519651
0.00380092
0.000399312
0.00375378
0.000302911
0.00372049
0.000228203
0.00369697
0.000171134
0.00368021
0.000127935
0.00366831
9.58945e-05
0.00365987
7.20966e-05
0.00365368
5.41966e-05
0.003649
4.09791e-05
0.00364537
3.11331e-05
0.00364264
2.35104e-05
0.00364061
1.76663e-05
0.00363909
1.32839e-05
0.00363794
1.00226e-05
0.00363706
7.56717e-06
0.00363639
5.70721e-06
0.00363588
4.29786e-06
0.0036355
3.22704e-06
0.00363521
2.42006e-06
0.00363499
1.81684e-06
0.00363483
1.36337e-06
0.0036347
1.02115e-06
0.0036346
7.62788e-07
0.00363453
5.68943e-07
0.00363447
4.23609e-07
0.00363443
3.15264e-07
0.0036344
2.32765e-07
0.00363438
1.75922e-07
1.18764e-07
0.00321189
2.96317e-05
0.00324645
8.8791e-05
0.00329749
0.000140153
0.0033579
0.00018006
0.00342157
0.000208383
0.00348356
0.000225784
0.00354033
0.00023278
0.00358883
0.000229855
0.00362806
0.000218353
0.003658
0.000199324
0.00367846
0.000174463
0.00369028
0.000145194
0.0036957
0.00011421
0.00369659
8.33437e-05
0.00369458
5.30269e-05
0.00369115
2.43926e-05
0.00368713
-2.40757e-06
0.0036832
-2.89963e-05
0.00367974
-5.64719e-05
0.00367746
-8.604e-05
0.0036773
-0.000119742
0.00367951
-0.000160234
0.00368496
-0.000209638
0.00369612
-0.000270172
0.0037157
-0.000344959
0.00374707
-0.000438159
0.0037957
-0.00055536
0.00386916
-0.000702802
0.00397778
-0.000886611
0.00412804
-0.00109977
0.00424519
-0.00120426
0.00423706
-0.00109419
0.00310357
-0.000343805
0.00157474
1.8083e-18
0.000875813
1.196e-18
0.000834201
8.71672e-19
0.00137986
8.1763e-19
0.00263593
6.48049e-19
0.00377377
0.000166538
0.00406369
0.000691999
0.00414264
0.00099543
0.00411195
0.00108202
0.0040384
0.00103346
0.00394768
0.000908177
0.00386712
0.000743082
0.00380598
0.000580788
0.00376263
0.000442668
0.00373295
0.000332588
0.00371316
0.000247995
0.00370006
0.000184236
0.00369125
0.000136743
0.00368542
0.000101721
0.00368163
7.58857e-05
0.00367918
5.66512e-05
0.0036776
4.2559e-05
0.00367643
3.23073e-05
0.00367553
2.44016e-05
0.00367489
1.83106e-05
0.00367439
1.3787e-05
0.00367396
1.04479e-05
0.00367362
7.90554e-06
0.00367336
5.96685e-06
0.00367317
4.49216e-06
0.00367303
3.36927e-06
0.00367292
2.52844e-06
0.00367283
1.90116e-06
0.00367277
1.42884e-06
0.00367272
1.07181e-06
0.00367268
8.01491e-07
0.00367265
5.98422e-07
0.00367263
4.46103e-07
0.00367261
3.32214e-07
0.0036726
2.45389e-07
0.00367259
1.84908e-07
1.23675e-07
0.00320825
2.13774e-05
0.00323287
6.41777e-05
0.00327057
0.000102453
0.00331715
0.000133479
0.00336874
0.000156791
0.00342186
0.00017267
0.00347344
0.000181202
0.00352094
0.000182356
0.00356281
0.000176483
0.00359795
0.000164174
0.00362593
0.000146491
0.00364655
0.000124574
0.00366063
0.000100128
0.0036693
7.46769e-05
0.00367322
4.91082e-05
0.00367356
2.40539e-05
0.00367146
-3.08951e-07
0.00366747
-2.50079e-05
0.00366199
-5.09936e-05
0.00365557
-7.96209e-05
0.00364864
-0.000112809
0.00364141
-0.000153005
0.00363466
-0.000202885
0.00362993
-0.000265441
0.00362904
-0.000344065
0.00363404
-0.000443158
0.00364735
-0.000568679
0.00367055
-0.000725998
0.00370187
-0.00091793
0.00370695
-0.00110485
0.00356001
-0.00105732
0.00113627
-0.000122421
3.55539e-18
1.05419e-18
1.52781e-18
-4.86363e-20
8.77994e-19
-2.13058e-20
8.90076e-19
2.09604e-20
1.04959e-18
3.28001e-20
1.52679e-18
7.57438e-20
0.000900005
3.04342e-19
0.00307046
3.25108e-05
0.00346084
0.000605057
0.00362532
0.00091754
0.00368989
0.000968882
0.00370362
0.000894455
0.00369514
0.000751559
0.00368357
0.000592352
0.00367568
0.000450561
0.00367188
0.000336388
0.00367104
0.000248837
0.00367191
0.000183363
0.00367359
0.000135064
0.0036756
9.97165e-05
0.00367753
7.39501e-05
0.00367916
5.50237e-05
0.00368057
4.11513e-05
0.00368188
3.09958e-05
0.00368296
2.33146e-05
0.00368377
1.75011e-05
0.00368433
1.32301e-05
0.00368473
1.00462e-05
0.00368503
7.60306e-06
0.00368527
5.73271e-06
0.00368546
4.30214e-06
0.0036856
3.22676e-06
0.0036857
2.43471e-06
0.00368576
1.83631e-06
0.00368581
1.38168e-06
0.00368584
1.03732e-06
0.00368587
7.75666e-07
0.00368589
5.79326e-07
0.0036859
4.32176e-07
0.00368591
3.21887e-07
0.00368592
2.37884e-07
0.00368592
1.78762e-07
1.1853e-07
0.00320623
1.51517e-05
0.00322491
4.54916e-05
0.00325423
7.31388e-05
0.00329147
9.62369e-05
0.00333403
0.000114235
0.00337953
0.000127161
0.00342567
0.000135062
0.00347025
0.000137777
0.00351155
0.000135188
0.00354823
0.000127495
0.00357944
0.000115285
0.0036046
9.941e-05
0.0036237
8.10293e-05
0.0036371
6.12821e-05
0.00364524
4.09652e-05
0.00364867
2.0625e-05
0.00364804
3.22716e-07
0.00364377
-2.07434e-05
0.00363611
-4.33357e-05
0.00362521
-6.87207e-05
0.00361107
-9.86666e-05
0.00359359
-0.000135519
0.00357284
-0.000182134
0.00354905
-0.000241653
0.00352234
-0.000317356
0.0034923
-0.000413111
0.00345649
-0.000532872
0.00340663
-0.000676131
0.00332243
-0.000833732
0.00316211
-0.000944529
0.000556642
-0.000262068
3.13503e-18
1.00628e-18
4.96492e-19
-2.38379e-20
1.89487e-20
5.42476e-22
4.12316e-20
1.5627e-21
8.7596e-20
2.36464e-21
2.41985e-19
1.24697e-21
7.06725e-19
1.51031e-20
1.39152e-18
1.65725e-20
0.000377518
1.14516e-19
0.00279957
8.24329e-05
0.00311051
0.000606605
0.00329109
0.000788299
0.00340593
0.000779617
0.00348036
0.000677125
0.00353029
0.000542419
0.00356622
0.000414634
0.00359367
0.000308937
0.00361521
0.000227295
0.00363218
0.000166394
0.00364549
0.00012176
0.00365586
8.93426e-05
0.00366394
6.58677e-05
0.00367017
4.87976e-05
0.00367495
3.63705e-05
0.00367869
2.72593e-05
0.00368153
2.04683e-05
0.00368365
1.53814e-05
0.00368527
1.16123e-05
0.00368652
8.7961e-06
0.00368747
6.65879e-06
0.00368818
5.01343e-06
0.00368872
3.76186e-06
0.00368911
2.84259e-06
0.00368939
2.15314e-06
0.0036896
1.62216e-06
0.00368977
1.21742e-06
0.00368989
9.1179e-07
0.00368999
6.81496e-07
0.00369006
5.10348e-07
0.00369011
3.81345e-07
0.00369015
2.84136e-07
0.00369017
2.10027e-07
0.0036902
1.56696e-07
1.02805e-07
0.00320502
1.0132e-05
0.0032201
3.04103e-05
0.00324413
4.9109e-05
0.00327531
6.50552e-05
0.00331175
7.77948e-05
0.00335166
8.72549e-05
0.00339333
9.33922e-05
0.00343499
9.61134e-05
0.00347495
9.52323e-05
0.00351176
9.06812e-05
0.0035443
8.27525e-05
0.00357169
7.20149e-05
0.00359349
5.92276e-05
0.00360962
4.51559e-05
0.0036202
3.03898e-05
0.00362545
1.53754e-05
0.00362551
2.63765e-07
0.00362056
-1.57956e-05
0.00361053
-3.33042e-05
0.00359512
-5.33181e-05
0.00357379
-7.73307e-05
0.00354567
-0.000107396
0.00350965
-0.000146118
0.0034643
-0.000196294
0.00340769
-0.000260748
0.00333696
-0.000342376
0.00324566
-0.000441566
0.00311729
-0.000547759
0.0029294
-0.000645846
0.00159283
-0.000521633
3.631e-18
1.25483e-18
4.19025e-19
-2.8674e-20
4.79235e-21
2.24439e-22
1.06254e-20
3.05024e-22
1.86252e-20
7.01205e-22
3.89523e-20
5.23917e-22
9.48136e-20
1.54881e-21
2.19596e-19
4.63911e-21
6.60813e-19
1.15704e-20
1.49377e-18
3.26566e-20
0.00124951
4.38484e-20
0.00269131
0.000242166
0.00293186
0.000547743
0.00312006
0.000591423
0.00326549
0.000531687
0.00337431
0.000433608
0.00345473
0.000334213
0.00351437
0.000249287
0.00355877
0.000182905
0.00359187
0.000133289
0.00361659
9.70407e-05
0.00363509
7.08473e-05
0.00364897
5.19858e-05
0.00365939
3.83722e-05
0.00366726
2.85056e-05
0.00367322
2.12965e-05
0.00367772
1.59666e-05
0.0036811
1.19996e-05
0.00368367
9.0495e-06
0.00368562
6.84302e-06
0.0036871
5.17555e-06
0.00368821
3.9042e-06
0.00368904
2.93617e-06
0.00368966
2.2169e-06
0.00369014
1.6777e-06
0.00369049
1.26555e-06
0.00369076
9.47804e-07
0.00369097
7.10063e-07
0.00369111
5.34549e-07
0.00369122
4.00756e-07
0.0036913
2.9851e-07
0.00369137
2.21635e-07
0.00369141
1.629e-07
0.00369145
1.19978e-07
7.80551e-08
0.0032043
5.82855e-06
0.00321723
1.74832e-05
0.00323803
2.83104e-05
0.00326542
3.76634e-05
0.00329796
4.52535e-05
0.00333422
5.1002e-05
0.00337275
5.48575e-05
0.00341212
5.67423e-05
0.0034508
5.65531e-05
0.00348729
5.41902e-05
0.0035203
4.97429e-05
0.00354878
4.35363e-05
0.00357201
3.60056e-05
0.00358958
2.75777e-05
0.00360138
1.85909e-05
0.00360749
9.26533e-06
0.0036077
5.755e-08
0.00360187
-9.97033e-06
0.00358961
-2.10445e-05
0.00357019
-3.38891e-05
0.00354237
-4.95115e-05
0.00350433
-6.93536e-05
0.00345347
-9.52644e-05
0.00338637
-0.000129187
0.00329876
-0.000173132
0.00318516
-0.000228778
0.00303734
-0.000293737
0.00284449
-0.000354908
0.00260592
-0.000407275
5.7382e-18
-0.000160152
1.05926e-18
-8.76884e-20
1.47527e-21
-2.73375e-23
3.16715e-21
-1.34636e-23
6.62513e-21
2.77212e-22
1.15328e-20
-2.09062e-23
2.66164e-20
-6.65668e-25
5.85314e-20
1.02386e-21
1.31e-19
1.67433e-21
3.4186e-19
2.90607e-21
9.69131e-19
2.87904e-21
2.03004e-18
1.55251e-20
0.00242834
5.82624e-05
0.00266568
0.000310402
0.00289332
0.000363781
0.00308782
0.000337186
0.00324205
0.000279378
0.00335945
0.000216818
0.00344676
0.000161975
0.00351094
0.000118722
0.00355794
8.62905e-05
0.00359237
6.26123e-05
0.00361767
4.55514e-05
0.00363634
3.3314e-05
0.00365019
2.45224e-05
0.00366052
1.81734e-05
0.00366827
1.35498e-05
0.00367409
1.01472e-05
0.00367846
7.62375e-06
0.00368176
5.74605e-06
0.00368427
4.3413e-06
0.00368616
3.28181e-06
0.00368759
2.47745e-06
0.00368866
1.8668e-06
0.00368946
1.40898e-06
0.00369008
1.06489e-06
0.00369054
8.03199e-07
0.00369088
6.0301e-07
0.00369114
4.51425e-07
0.00369134
3.39018e-07
0.00369148
2.54142e-07
0.00369159
1.88863e-07
0.00369168
1.3916e-07
0.00369174
1.01283e-07
0.00369178
7.41686e-08
4.74832e-08
0.00320391
1.91413e-06
0.00321568
5.7138e-06
0.00323473
9.26553e-06
0.00326003
1.2359e-05
0.00329041
1.48797e-05
0.00332461
1.68044e-05
0.00336135
1.81135e-05
0.00339932
1.87761e-05
0.00343711
1.87597e-05
0.00347327
1.8025e-05
0.00350643
1.65887e-05
0.00353541
1.4555e-05
0.00355935
1.20693e-05
0.00357766
9.26684e-06
0.00358999
6.26373e-06
0.00359623
3.0218e-06
0.00359635
-6.39409e-08
0.00358981
-3.42735e-06
0.00357596
-7.19802e-06
0.0035537
-1.16254e-05
0.00352123
-1.70465e-05
0.00347586
-2.39756e-05
0.00341367
-3.30738e-05
0.00332949
-4.50045e-05
0.00321679
-6.04286e-05
0.00306782
-7.98004e-05
0.00287604
-0.000101959
0.00264075
-0.000119611
0.00235866
-0.000125183
4.44844e-18
-4.59339e-05
7.98739e-19
-1.28702e-20
1.19087e-21
-4.58462e-24
2.84328e-21
1.73916e-22
4.95307e-21
-8.62063e-24
9.84237e-21
-1.51903e-24
2.1892e-20
5.71175e-22
3.98745e-20
6.99774e-23
8.86297e-20
2.13451e-22
2.25188e-19
7.31114e-22
6.79513e-19
2.56766e-21
1.64045e-18
-9.41153e-22
0.00229456
8.14295e-06
0.00250635
9.86123e-05
0.00274864
0.000121486
0.00297097
0.000114853
0.00315392
9.64277e-05
0.0032956
7.51465e-05
0.0034014
5.61683e-05
0.00347897
4.11501e-05
0.00353539
2.98707e-05
0.00357637
2.16379e-05
0.00360621
1.5712e-05
0.00362805
1.14716e-05
0.00364414
8.43227e-06
0.00365607
6.24211e-06
0.00366497
4.65028e-06
0.00367164
3.4813e-06
0.00367664
2.61571e-06
0.00368042
1.97152e-06
0.00368327
1.48951e-06
0.00368543
1.1262e-06
0.00368705
8.5076e-07
0.00368828
6.41795e-07
0.0036892
4.84441e-07
0.0036899
3.65822e-07
0.00369043
2.75636e-07
0.00369082
2.06756e-07
0.00369112
1.54422e-07
0.00369135
1.15266e-07
0.00369151
8.56071e-08
0.00369164
6.27406e-08
0.00369173
4.51003e-08
0.0036918
3.13434e-08
0.00369186
2.1193e-08
1.12073e-08
0.00320379
-1.87155e-06
0.00321517
-5.66605e-06
0.00323364
-9.20632e-06
0.00325829
-1.2294e-05
0.00328798
-1.48109e-05
0.00332152
-1.67367e-05
0.00335769
-1.80523e-05
0.00339519
-1.87268e-05
0.00343268
-1.87268e-05
0.00346872
-1.80112e-05
0.0035019
-1.65942e-05
0.00353103
-1.45775e-05
0.00355521
-1.21052e-05
0.00357378
-9.31143e-06
0.00358636
-6.31213e-06
0.00359245
-3.06903e-06
0.00359237
2.09623e-08
0.00358554
3.39406e-06
0.00357117
7.17759e-06
0.00354792
1.16233e-05
0.00351381
1.70686e-05
0.00346581
2.40289e-05
0.00339957
3.31626e-05
0.00330944
4.51338e-05
0.00318843
6.05835e-05
0.00302874
7.98965e-05
0.00282492
0.000101857
0.00258608
0.000119238
0.00233622
0.00012467
3.89295e-18
4.58525e-05
4.25799e-19
1.27468e-20
1.33973e-21
4.59492e-24
2.12774e-21
-1.73851e-22
4.35496e-21
8.71327e-24
1.00832e-20
4.02226e-24
1.75801e-20
-7.13233e-22
3.70989e-20
-7.42266e-23
8.3173e-20
-2.14468e-22
1.87193e-19
-7.30794e-22
5.61945e-19
-2.56662e-21
1.50438e-18
9.51993e-22
0.00226071
-8.12911e-06
0.00245785
-9.85267e-05
0.00270069
-0.00012136
0.00293025
-0.000114706
0.00312296
-9.62848e-05
0.00327316
-7.50512e-05
0.00338546
-5.61274e-05
0.00346775
-4.11433e-05
0.0035275
-2.98784e-05
0.00357079
-2.165e-05
0.00360222
-1.57231e-05
0.00362517
-1.14798e-05
0.00364204
-8.43673e-06
0.00365453
-6.24271e-06
0.00366383
-4.6475e-06
0.00367078
-3.4762e-06
0.00367601
-2.60923e-06
0.00367994
-1.96456e-06
0.00368291
-1.4825e-06
0.00368516
-1.11944e-06
0.00368686
-8.44445e-07
0.00368813
-6.36293e-07
0.0036891
-4.80079e-07
0.00368983
-3.62888e-07
0.00369038
-2.74243e-07
0.00369079
-2.06866e-07
0.0036911
-1.5603e-07
0.00369133
-1.18331e-07
0.00369151
-9.02584e-08
0.00369164
-6.91025e-08
0.00369174
-5.3368e-08
0.00369181
-4.16777e-08
0.00369187
-3.35159e-08
-2.61837e-08
0.00320391
-5.78596e-06
0.00321568
-1.74356e-05
0.00323473
-2.82509e-05
0.00326003
-3.75987e-05
0.00329041
-4.51858e-05
0.00332461
-5.0936e-05
0.00336135
-5.47984e-05
0.00339932
-5.66951e-05
0.00343712
-5.65218e-05
0.00347328
-5.41773e-05
0.00350644
-4.97486e-05
0.00353542
-4.35588e-05
0.00355936
-3.60412e-05
0.00357767
-2.7622e-05
0.00358999
-1.86391e-05
0.00359624
-9.31366e-06
0.00359636
-1.01028e-07
0.00358982
9.93514e-06
0.00357598
2.10212e-05
0.00355372
3.38816e-05
0.00352126
4.9525e-05
0.0034759
6.93924e-05
0.00341374
9.53343e-05
0.00332958
0.000129295
0.00321691
0.000173261
0.00306795
0.000228849
0.00287618
0.000293636
0.00264082
0.000354592
0.00235862
0.000406873
4.44853e-18
0.000160039
7.98778e-19
8.76044e-20
1.19084e-21
2.73485e-23
2.84064e-21
1.34832e-23
4.92622e-21
-2.76718e-22
9.70964e-21
2.29238e-23
2.18506e-20
6.21222e-24
3.98746e-20
-1.02414e-21
8.86318e-20
-1.67311e-21
2.25202e-19
-2.90378e-21
6.79557e-19
-2.87266e-21
1.64051e-18
-1.549e-20
0.00229454
-5.82347e-05
0.00250629
-0.000310276
0.00274857
-0.000363634
0.0029709
-0.000337045
0.00315388
-0.000279265
0.00329559
-0.000216754
0.00340141
-0.000161949
0.00347898
-0.000118719
0.0035354
-8.62978e-05
0.00357638
-6.26225e-05
0.00360621
-4.55604e-05
0.00362805
-3.33202e-05
0.00364414
-2.45253e-05
0.00365607
-1.81728e-05
0.00366497
-1.35464e-05
0.00367164
-1.01417e-05
0.00367664
-7.61709e-06
0.00368042
-5.73898e-06
0.00368327
-4.33424e-06
0.00368542
-3.27507e-06
0.00368705
-2.47121e-06
0.00368828
-1.86142e-06
0.0036892
-1.40475e-06
0.0036899
-1.06208e-06
0.00369043
-8.01889e-07
0.00369082
-6.03218e-07
0.00369112
-4.53106e-07
0.00369134
-3.42164e-07
0.00369151
-2.5883e-07
0.00369164
-1.95219e-07
0.00369173
-1.47393e-07
0.0036918
-1.11522e-07
0.00369186
-8.63397e-08
-6.2163e-08
0.0032043
-1.00903e-05
0.00321723
-3.03633e-05
0.00323803
-4.90503e-05
0.00326543
-6.49919e-05
0.00329797
-7.77293e-05
0.00333422
-8.7192e-05
0.00337276
-9.33366e-05
0.00341214
-9.60695e-05
0.00345082
-9.52037e-05
0.00348731
-9.06698e-05
0.00352032
-8.27586e-05
0.0035488
-7.20372e-05
0.00357202
-5.92626e-05
0.0035896
-4.51995e-05
0.0036014
-3.04379e-05
0.00360751
-1.54241e-05
0.00360772
-3.08166e-07
0.00360189
1.57581e-05
0.00358964
3.32762e-05
0.00357022
5.33022e-05
0.00354242
7.73293e-05
0.0035044
0.00010741
0.00345359
0.000146146
0.00338655
0.000196339
0.00329903
0.000260787
0.00318553
0.000342354
0.00303773
0.000441437
0.00284478
0.000547545
0.00260599
0.000645664
5.73846e-18
0.000521594
1.05938e-18
-1.25482e-18
1.47541e-21
2.86703e-20
3.16668e-21
-2.24388e-22
6.62321e-21
-3.04994e-22
1.15335e-20
-7.00905e-22
2.66161e-20
-5.21398e-22
5.85339e-20
-1.54742e-21
1.31007e-19
-4.63576e-21
3.41882e-19
-1.15622e-20
9.69202e-19
-3.264e-20
2.03011e-18
-4.37731e-20
0.0024283
-0.000242093
0.00266561
-0.000547587
0.00289325
-0.000591275
0.00308777
-0.000531565
0.00324204
-0.000433538
0.00335947
-0.000334181
0.00344679
-0.000249272
0.00351097
-0.000182902
0.00355797
-0.000133292
0.00359239
-9.70446e-05
0.00361768
-7.08505e-05
0.00363635
-5.1987e-05
0.00365019
-3.83713e-05
0.00366052
-2.85025e-05
0.00366827
-2.12915e-05
0.00367408
-1.59602e-05
0.00367846
-1.19924e-05
0.00368176
-9.04208e-06
0.00368426
-6.83581e-06
0.00368616
-5.16876e-06
0.00368758
-3.89811e-06
0.00368865
-2.93102e-06
0.00368946
-2.21291e-06
0.00369007
-1.6751e-06
0.00369054
-1.2644e-06
0.00369088
-9.4815e-07
0.00369114
-7.11886e-07
0.00369134
-5.37824e-07
0.00369148
-4.05509e-07
0.00369159
-3.04873e-07
0.00369167
-2.29755e-07
0.00369174
-1.72898e-07
0.00369178
-1.31867e-07
-9.22667e-08
0.00320502
-1.51123e-05
0.00322011
-4.54467e-05
0.00324414
-7.30831e-05
0.00327532
-9.61767e-05
0.00331177
-0.000114173
0.00335168
-0.000127102
0.00339335
-0.00013501
0.00343502
-0.000137736
0.00347498
-0.000135162
0.00351179
-0.000127486
0.00354432
-0.000115292
0.00357172
-9.94317e-05
0.00359352
-8.10634e-05
0.00360964
-6.13246e-05
0.00362022
-4.10123e-05
0.00362547
-2.0673e-05
0.00362553
-3.6751e-07
0.00362058
2.07041e-05
0.00361055
4.33032e-05
0.00359516
6.86964e-05
0.00357384
9.865e-05
0.00354575
0.000135507
0.00350978
0.00018212
0.00346449
0.000241631
0.00340798
0.000317303
0.00333734
0.000412995
0.00324607
0.000532699
0.00311765
0.000675973
0.00292962
0.000833696
0.00159287
0.000944663
3.63109e-18
0.000262112
4.19069e-19
-1.00617e-18
4.79641e-21
2.38561e-20
1.06434e-20
-5.43527e-22
1.86341e-20
-1.56216e-21
3.89568e-20
-2.36315e-21
9.482e-20
-1.2445e-21
2.19622e-19
-1.50894e-20
6.60943e-19
-1.6554e-20
1.49389e-18
-1.14375e-19
0.0012495
-8.24193e-05
0.00269125
-0.000606487
0.00293182
-0.000788159
0.00312005
-0.000779499
0.00326553
-0.000677044
0.00337436
-0.000542376
0.00345479
-0.00041461
0.00351444
-0.000308919
0.00355882
-0.000227282
0.00359191
-0.000166384
0.00361662
-0.000121752
0.0036351
-8.93363e-05
0.00364898
-6.58613e-05
0.0036594
-4.87911e-05
0.00366726
-3.63635e-05
0.00367322
-2.72518e-05
0.00367772
-2.04605e-05
0.0036811
-1.53735e-05
0.00368366
-1.16043e-05
0.00368562
-8.7886e-06
0.0036871
-6.6519e-06
0.00368821
-5.00748e-06
0.00368903
-3.75702e-06
0.00368966
-2.83891e-06
0.00369013
-2.15081e-06
0.00369049
-1.62122e-06
0.00369076
-1.21789e-06
0.00369096
-9.13757e-07
0.00369111
-6.84898e-07
0.00369122
-5.15204e-07
0.0036913
-3.87718e-07
0.00369136
-2.92123e-07
0.00369141
-2.19681e-07
0.00369145
-1.68063e-07
-1.163e-07
0.00320623
-2.13413e-05
0.00322492
-6.41366e-05
0.00325424
-0.000102402
0.00329149
-0.000133424
0.00333405
-0.000156734
0.00337956
-0.000172615
0.0034257
-0.000181155
0.00347029
-0.00018232
0.00351159
-0.00017646
0.00354827
-0.000164166
0.00357947
-0.000146499
0.00360464
-0.000124595
0.00362373
-0.00010016
0.00363713
-7.47173e-05
0.00364527
-4.9153e-05
0.00364869
-2.40999e-05
0.00364806
2.65357e-07
0.0036438
2.49684e-05
0.00363614
5.09589e-05
0.00362525
7.9591e-05
0.00361112
0.000112783
0.00359365
0.000152977
0.00357292
0.000202847
0.00354917
0.000265384
0.00352251
0.000343973
0.00349249
0.000443012
0.00345669
0.000568498
0.0034068
0.00072586
0.00332257
0.000917928
0.00316225
0.00110499
0.000556655
0.00105749
3.13518e-18
0.000122433
4.96659e-19
-1.0541e-18
1.89551e-20
4.87174e-20
4.1242e-20
2.13011e-20
8.76094e-20
-2.0962e-20
2.42025e-19
-3.27992e-20
7.06863e-19
-7.57209e-20
1.39156e-18
-3.04205e-19
0.000377524
-3.25171e-05
0.00279953
-0.000604996
0.00311048
-0.000917434
0.0032911
-0.000968785
0.00340598
-0.00089438
0.00348045
-0.000751515
0.00353039
-0.000592316
0.00356631
-0.000450528
0.00359375
-0.000336356
0.00361527
-0.000248808
0.00363223
-0.000183338
0.00364552
-0.000135044
0.00365588
-9.96994e-05
0.00366396
-7.39356e-05
0.00367018
-5.5011e-05
0.00367495
-4.11399e-05
0.00367869