/*--------------------------------*- C++ -*----------------------------------*\
| =========                 |                                                 |
| \\      /  F ield         | OpenFOAM: The Open Source CFD Toolbox           |
|  \\    /   O peration     | Version:  2206                                  |
|   \\  /    A nd           | Website:  www.openfoam.com                      |
|    \\/     M anipulation  |                                                 |
\*---------------------------------------------------------------------------*/
FoamFile
{
    version     2.0;
    format      ascii;
    arch        "LSB;label=32;scalar=64";
    class       surfaceVectorField;
    location    "0.4";
    object      Uf;
}
// * * * * * * * * * * * * * * * * * * * * * * * * * * * * * * * * * * * * * //

dimensions      [0 1 -1 0 0 0 0];

internalField   nonuniform List<vector> 
3650
(
(0.859809 0.0532048 0)
(0.903242 0.140192 0)
(0.701532 0.0845472 0)
(0.900316 0.158277 0)
(0.567701 0.0660499 0)
(0.84331 0.133831 0)
(0.464509 0.0366218 0)
(0.752602 0.103192 0)
(0.388947 0.0188409 0)
(0.673006 0.0755616 0)
(0.33616 0.0100526 0)
(0.608851 0.0527874 0)
(0.29991 0.00526147 0)
(0.558548 0.0362502 0)
(0.275465 0.00258439 0)
(0.51931 0.0244453 0)
(0.259313 0.00113478 0)
(0.48998 0.0161528 0)
(0.248894 0.000353882 0)
(0.468969 0.0104184 0)
(0.24256 -9.75635e-05 0)
(0.454494 0.00633399 0)
(0.239166 -0.000376658 0)
(0.445129 0.00339427 0)
(0.237863 -0.000555172 0)
(0.439644 0.00130326 0)
(0.238023 -0.000696349 0)
(0.43703 -0.000159942 0)
(0.239199 -0.000838911 0)
(0.436542 -0.00117592 0)
(0.241208 -0.000983513 0)
(0.437578 -0.00200893 0)
(0.243989 -0.00114936 0)
(0.439936 -0.00277998 0)
(0.24755 -0.0013635 0)
(0.443473 -0.00356164 0)
(0.25198 -0.00163931 0)
(0.448181 -0.00443012 0)
(0.257433 -0.00198752 0)
(0.454169 -0.00545185 0)
(0.264119 -0.00242031 0)
(0.461633 -0.00668605 0)
(0.272302 -0.00294807 0)
(0.470847 -0.00818311 0)
(0.282281 -0.00357652 0)
(0.482153 -0.00997921 0)
(0.294373 -0.00430622 0)
(0.495926 -0.0120915 0)
(0.308894 -0.00512583 0)
(0.512567 -0.0145215 0)
(0.326128 -0.00600401 0)
(0.532471 -0.0172335 0)
(0.346272 -0.0068832 0)
(0.555985 -0.0201436 0)
(0.369358 -0.00766691 0)
(0.583345 -0.0230861 0)
(0.395128 -0.00820867 0)
(0.61456 -0.0257708 0)
(0.422875 -0.00830695 0)
(0.649234 -0.0277469 0)
(0.451243 -0.00772825 0)
(0.686325 -0.0283689 0)
(0.478084 -0.00631074 0)
(0.723948 -0.0268409 0)
(0.500647 -0.00408002 0)
(0.758906 -0.0225635 0)
(0.516045 -0.00127829 0)
(0.787491 -0.0153985 0)
(0.521921 0.00176802 0)
(0.805286 -0.00587546 0)
(0.517976 0.00480247 0)
(0.810122 0.00394506 0)
(0.503941 0.00728182 0)
(0.801801 0.0140346 0)
(0.481565 0.00879963 0)
(0.779908 0.0223761 0)
(0.4535 0.00941712 0)
(0.747328 0.0280656 0)
(0.422787 0.00925898 0)
(0.708056 0.030713 0)
(0.392163 0.00857027 0)
(0.666188 0.030625 0)
(0.363558 0.00760156 0)
(0.625297 0.0286042 0)
(0.338095 0.0065099 0)
(0.587971 0.0254639 0)
(0.316302 0.00540591 0)
(0.55535 0.0217926 0)
(0.298221 0.0043796 0)
(0.527898 0.0180813 0)
(0.283577 0.00347965 0)
(0.505451 0.0146437 0)
(0.271937 0.00272268 0)
(0.487489 0.0116406 0)
(0.262812 0.00210542 0)
(0.473343 0.00912478 0)
(0.255733 0.00161258 0)
(0.462327 0.00707991 0)
(0.250285 0.00122442 0)
(0.453819 0.0054476 0)
(0.246124 0.00092299 0)
(0.447294 0.00416145 0)
(0.242962 0.000692316 0)
(0.442317 0.00316231 0)
(0.240567 0.000517219 0)
(0.438534 0.0023948 0)
(0.238759 0.000384885 0)
(0.435664 0.00180777 0)
(0.237399 0.000285378 0)
(0.433493 0.00136095 0)
(0.236377 0.000210786 0)
(0.431854 0.00102198 0)
(0.235611 0.00015501 0)
(0.430619 0.000765294 0)
(0.23504 0.000113505 0)
(0.42969 0.000571266 0)
(0.234615 8.28233e-05 0)
(0.428994 0.000425364 0)
(0.234299 6.02422e-05 0)
(0.428473 0.000316097 0)
(0.234064 4.36654e-05 0)
(0.428084 0.000234508 0)
(0.23389 3.15184e-05 0)
(0.427793 0.00017361 0)
(0.233762 2.26377e-05 0)
(0.427577 0.000128249 0)
(0.233668 1.61564e-05 0)
(0.427416 9.44716e-05 0)
(0.233598 1.14501e-05 0)
(0.427296 6.94121e-05 0)
(0.233548 8.05714e-06 0)
(0.427208 5.08397e-05 0)
(0.23351 5.6358e-06 0)
(0.427142 3.71522e-05 0)
(0.233483 3.92334e-06 0)
(0.427094 2.70633e-05 0)
(0.233464 2.7205e-06 0)
(0.427058 1.96845e-05 0)
(0.233449 1.88171e-06 0)
(0.427032 1.42708e-05 0)
(0.233439 1.29878e-06 0)
(0.427013 1.0356e-05 0)
(0.233432 9.18608e-07 0)
(0.427 7.51159e-06 0)
(0.233426 6.51991e-07 0)
(0.426989 5.50931e-06 0)
(0.233422 6.2257e-07 0)
(0.426982 4.1472e-06 0)
(0.426974 3.41746e-06 0)
(1.05169 0.154838 0)
(1.01328 0.0885018 0)
(1.04738 0.182935 0)
(1.05547 0.162583 0)
(1.01073 0.167822 0)
(1.06747 0.170489 0)
(0.956075 0.142612 0)
(1.04937 0.157845 0)
(0.892857 0.111656 0)
(1.01463 0.138779 0)
(0.830865 0.0816401 0)
(0.973171 0.11478 0)
(0.776875 0.0576333 0)
(0.931584 0.0902397 0)
(0.733024 0.0396831 0)
(0.892139 0.0682963 0)
(0.699217 0.0265712 0)
(0.857378 0.0499602 0)
(0.674258 0.0170352 0)
(0.82917 0.0353777 0)
(0.65682 0.0100908 0)
(0.807359 0.0237725 0)
(0.645428 0.00510343 0)
(0.791472 0.0147856 0)
(0.638668 0.00158372 0)
(0.780638 0.00806367 0)
(0.635428 -0.000855394 0)
(0.773866 0.00308016 0)
(0.634833 -0.00264003 0)
(0.770412 -0.000580939 0)
(0.636243 -0.00417728 0)
(0.769503 -0.00341862 0)
(0.639329 -0.00564243 0)
(0.770658 -0.00586514 0)
(0.643988 -0.00715236 0)
(0.77361 -0.00822064 0)
(0.650228 -0.0088598 0)
(0.778267 -0.0106706 0)
(0.658192 -0.0108854 0)
(0.784672 -0.0134158 0)
(0.668137 -0.0133257 0)
(0.792987 -0.0166307 0)
(0.680418 -0.0162528 0)
(0.803495 -0.0204638 0)
(0.695457 -0.0197088 0)
(0.81658 -0.0250181 0)
(0.713712 -0.0237108 0)
(0.832688 -0.0303471 0)
(0.735677 -0.0282343 0)
(0.852298 -0.0364858 0)
(0.761815 -0.033178 0)
(0.875958 -0.0433715 0)
(0.792526 -0.0383253 0)
(0.904227 -0.0508545 0)
(0.828046 -0.0432839 0)
(0.93762 -0.0586067 0)
(0.86828 -0.0474185 0)
(0.976503 -0.0660046 0)
(0.912551 -0.0497923 0)
(1.02088 -0.0720183 0)
(0.959284 -0.0491307 0)
(1.07005 -0.0751015 0)
(1.00547 -0.0441442 0)
(1.12199 -0.073028 0)
(1.04676 -0.0341426 0)
(1.1728 -0.0638538 0)
(1.07825 -0.0194925 0)
(1.21716 -0.0468868 0)
(1.09533 -0.00234168 0)
(1.24885 -0.0229544 0)
(1.09555 0.0154455 0)
(1.26258 0.00372096 0)
(1.07877 0.0320341 0)
(1.25733 0.0308114 0)
(1.04637 0.0448576 0)
(1.23282 0.0547813 0)
(1.00218 0.0525849 0)
(1.19198 0.0722556 0)
(0.951387 0.0550808 0)
(1.14002 0.081506 0)
(0.899074 0.0532774 0)
(1.08298 0.0829379 0)
(0.849318 0.0486154 0)
(1.02618 0.0783604 0)
(0.804695 0.0424438 0)
(0.974055 0.0700872 0)
(0.76639 0.0357817 0)
(0.928476 0.0600971 0)
(0.7346 0.0293438 0)
(0.890224 0.0498719 0)
(0.708887 0.0235534 0)
(0.859098 0.0403561 0)
(0.688488 0.0186013 0)
(0.834338 0.0320397 0)
(0.672524 0.0145164 0)
(0.814959 0.0250892 0)
(0.660144 0.0112265 0)
(0.799942 0.0194599 0)
(0.650613 0.00861644 0)
(0.788381 0.0149793 0)
(0.643321 0.00657334 0)
(0.779538 0.0114537 0)
(0.637763 0.00499431 0)
(0.772808 0.00872063 0)
(0.633535 0.0037828 0)
(0.76769 0.006623 0)
(0.630326 0.00285707 0)
(0.7638 0.00501689 0)
(0.627894 0.00215264 0)
(0.76085 0.00379215 0)
(0.626055 0.00161785 0)
(0.758614 0.00286113 0)
(0.624667 0.00121248 0)
(0.756921 0.00215357 0)
(0.623622 0.000906261 0)
(0.755642 0.00161661 0)
(0.622836 0.000675995 0)
(0.754678 0.00121104 0)
(0.622246 0.000503392 0)
(0.753953 0.000905933 0)
(0.621804 0.000374203 0)
(0.753407 0.000676811 0)
(0.621473 0.00027761 0)
(0.752996 0.000504817 0)
(0.621225 0.000205484 0)
(0.752688 0.000375847 0)
(0.62104 0.000151728 0)
(0.752457 0.000279239 0)
(0.620903 0.000111758 0)
(0.752284 0.000207042 0)
(0.6208 8.21118e-05 0)
(0.752155 0.000153195 0)
(0.620724 6.01734e-05 0)
(0.752058 0.000113125 0)
(0.620668 4.39797e-05 0)
(0.751987 8.33376e-05 0)
(0.620627 3.20633e-05 0)
(0.751933 6.1248e-05 0)
(0.620596 2.33305e-05 0)
(0.751894 4.49079e-05 0)
(0.620574 1.69764e-05 0)
(0.751864 3.28689e-05 0)
(0.620557 1.2376e-05 0)
(0.751843 2.40954e-05 0)
(0.620545 9.18299e-06 0)
(0.751826 1.76224e-05 0)
(0.620536 6.99838e-06 0)
(0.751815 1.3342e-05 0)
(0.751803 9.76632e-06 0)
(1.0395 0.111068 0)
(1.00908 0.0490062 0)
(1.08195 0.157148 0)
(1.04738 0.120134 0)
(1.10296 0.164364 0)
(1.08749 0.149471 0)
(1.10581 0.157696 0)
(1.11056 0.154998 0)
(1.09498 0.144351 0)
(1.11681 0.149605 0)
(1.07383 0.124855 0)
(1.11478 0.135931 0)
(1.04625 0.102001 0)
(1.1026 0.117827 0)
(1.01598 0.0792542 0)
(1.08512 0.0985587 0)
(0.987052 0.0589971 0)
(1.06476 0.0788911 0)
(0.96197 0.0421136 0)
(1.04456 0.0604604 0)
(0.941776 0.0284367 0)
(1.02608 0.0439664 0)
(0.926524 0.0177127 0)
(1.01044 0.0300373 0)
(0.915703 0.00950761 0)
(0.998207 0.0188856 0)
(0.908721 0.00329064 0)
(0.989229 0.0100619 0)
(0.904983 -0.00142552 0)
(0.983294 0.00315785 0)
(0.90386 -0.00517382 0)
(0.98004 -0.00229587 0)
(0.904865 -0.00853063 0)
(0.979036 -0.00686987 0)
(0.907785 -0.0118534 0)
(0.979985 -0.0111403 0)
(0.912587 -0.0153607 0)
(0.982777 -0.0154726 0)
(0.919313 -0.0193183 0)
(0.987407 -0.0201425 0)
(0.928148 -0.0239638 0)
(0.99397 -0.025465 0)
(0.939411 -0.0294784 0)
(1.00271 -0.0317267 0)
(0.953515 -0.0359698 0)
(1.014 -0.0391226 0)
(0.970902 -0.0434892 0)
(1.02831 -0.047734 0)
(0.992145 -0.0520404 0)
(1.04598 -0.0577289 6.19854e-34)
(1.01788 -0.061546 0)
(1.06782 -0.0691074 -6.14821e-34)
(1.0488 -0.0717452 0)
(1.09466 -0.0817698 0)
(1.08556 -0.0820546 0)
(1.12743 -0.0953716 0)
(1.12867 -0.0914259 0)
(1.16718 -0.109117 0)
(1.17816 -0.0981594 0)
(1.2148 -0.121509 0)
(1.233 -0.0996632 0)
(1.2707 -0.129937 0)
(1.29003 -0.0930467 0)
(1.33287 -0.130056 0)
(1.34415 -0.0764681 0)
(1.39628 -0.117978 0)
(1.38934 -0.049798 0)
(1.45423 -0.0920728 0)
(1.41812 -0.0160414 0)
(1.49881 -0.0517316 0)
(1.42555 0.0201927 0)
(1.52145 -0.00371441 0)
(1.41222 0.054914 0)
(1.52052 0.0441378 0)
(1.37898 0.0835905 0)
(1.49677 0.0880291 0)
(1.32993 0.102427 0)
(1.45264 0.121298 0)
(1.27143 0.11038 0)
(1.39411 0.140015 0)
(1.20984 0.108804 0)
(1.32872 0.144527 0)
(1.1506 0.100383 0)
(1.2631 0.137593 0)
(1.09738 0.0880926 0)
(1.20294 0.123316 0)
(1.05183 0.0744004 0)
(1.15074 0.10564 0)
(1.01427 0.0610108 0)
(1.1074 0.0874334 0)
(0.984142 0.0489173 0)
(1.07259 0.0704852 0)
(0.96046 0.0385742 0)
(1.04528 0.0557213 0)
(0.942093 0.0300686 0)
(1.02421 0.0434567 0)
(0.927947 0.0232421 0)
(1.00808 0.0336064 0)
(0.917118 0.0178355 0)
(0.995774 0.0258087 0)
(0.908883 0.0136127 0)
(0.986456 0.019689 0)
(0.902627 0.0103587 0)
(0.979433 0.014976 0)
(0.897871 0.0078644 0)
(0.974114 0.0113795 0)
(0.894261 0.00595704 0)
(0.970077 0.00862714 0)
(0.891522 0.00450449 0)
(0.967022 0.00653136 0)
(0.889443 0.00339967 0)
(0.964705 0.00493978 0)
(0.887869 0.00255951 0)
(0.962946 0.0037282 0)
(0.886679 0.00192259 0)
(0.961616 0.00280651 0)
(0.885781 0.00144196 0)
(0.960611 0.00210926 0)
(0.885103 0.0010802 0)
(0.959853 0.00158386 0)
(0.884591 0.000808133 0)
(0.959279 0.00118823 0)
(0.884206 0.000603621 0)
(0.958846 0.000890238 0)
(0.883916 0.000450047 0)
(0.958519 0.000665942 0)
(0.883698 0.000334901 0)
(0.958272 0.000497253 0)
(0.883534 0.000248755 0)
(0.958087 0.000370669 0)
(0.883411 0.000184427 0)
(0.957947 0.000275874 0)
(0.88332 0.000136457 0)
(0.957842 0.000204991 0)
(0.883251 0.00010073 0)
(0.957763 0.000152005 0)
(0.8832 7.41815e-05 0)
(0.957704 0.000112459 0)
(0.883162 5.45073e-05 0)
(0.95766 8.30168e-05 0)
(0.883133 4.00287e-05 0)
(0.957627 6.11499e-05 0)
(0.883112 2.93624e-05 0)
(0.957603 4.51083e-05 0)
(0.883097 2.17908e-05 0)
(0.957585 3.30694e-05 0)
(0.883085 1.6095e-05 0)
(0.957572 2.50527e-05 0)
(0.957558 1.7629e-05 0)
(1.0197 0.0664372 0)
(1.0042 0.0293074 0)
(1.05941 0.112962 0)
(1.02711 0.0804272 0)
(1.09557 0.1377 0)
(1.06403 0.113308 0)
(1.12092 0.144856 0)
(1.09744 0.129645 0)
(1.13669 0.140429 0)
(1.12067 0.133841 0)
(1.14338 0.129221 0)
(1.13797 0.12924 0)
(1.14146 0.114888 0)
(1.14542 0.119743 0)
(1.1336 0.0985759 0)
(1.14739 0.10642 0)
(1.12199 0.0808549 0)
(1.14437 0.0905013 0)
(1.10842 0.0629092 0)
(1.1371 0.0740318 0)
(1.09459 0.0460469 0)
(1.1281 0.0577996 0)
(1.08201 0.0314989 0)
(1.11859 0.0426139 0)
(1.07159 0.0196069 0)
(1.10966 0.0293029 0)
(1.06368 0.0100431 0)
(1.10192 0.0179806 0)
(1.05826 0.00238495 0)
(1.0959 0.00856929 0)
(1.05514 -0.00385589 0)
(1.09173 0.00083032 0)
(1.05411 -0.00928883 0)
(1.08937 -0.00583829 0)
(1.05489 -0.0145379 0)
(1.08867 -0.0119233 0)
(1.05749 -0.0199916 0)
(1.08959 -0.0180757 0)
(1.06193 -0.0259624 0)
(1.09217 -0.0245816 0)
(1.06835 -0.0328241 0)
(1.09642 -0.0318805 0)
(1.07706 -0.0409074 0)
(1.10256 -0.0404429 0)
(1.08852 -0.0504341 0)
(1.111 -0.0505774 0)
(1.10305 -0.0615762 6.19854e-34)
(1.12238 -0.062267 0)
(1.12123 -0.0744011 5.44261e-36)
(1.13655 -0.0759054 6.19854e-34)
(1.14407 -0.0889203 -6.14821e-34)
(1.15529 -0.0919459 -6.14821e-34)
(1.1727 -0.105031 0)
(1.17928 -0.110399 0)
(1.20842 -0.122183 0)
(1.21002 -0.131093 0)
(1.25271 -0.139109 0)
(1.24951 -0.153405 0)
(1.30687 -0.153332 0)
(1.30001 -0.175676 0)
(1.37085 -0.160253 0)
(1.36363 -0.193909 0)
(1.44007 -0.154595 0)
(1.43638 -0.199282 0)
(1.50737 -0.132649 0)
(1.51126 -0.185282 0)
(1.56577 -0.092381 0)
(1.57836 -0.150469 0)
(1.6045 -0.0378545 0)
(1.62867 -0.0904624 0)
(1.61735 0.0211102 0)
(1.65535 -0.0165667 0)
(1.60591 0.0779122 0)
(1.6533 0.0555782 0)
(1.57074 0.12644 0)
(1.63181 0.123197 0)
(1.51653 0.159449 0)
(1.58641 0.17551 0)
(1.45097 0.174475 0)
(1.52407 0.20558 0)
(1.38159 0.173352 0)
(1.45347 0.213903 0)
(1.31509 0.160406 0)
(1.38239 0.204093 0)
(1.25589 0.140707 0)
(1.31706 0.182523 0)
(1.20591 0.118501 0)
(1.26091 0.155618 0)
(1.16535 0.0967392 0)
(1.21507 0.127993 0)
(1.13339 0.0771527 0)
(1.17903 0.102442 0)
(1.10874 0.0605075 0)
(1.15139 0.0803694 0)
(1.08998 0.0469121 0)
(1.13051 0.0622199 0)
(1.07571 0.0360867 0)
(1.11486 0.047873 0)
(1.06495 0.0275864 0)
(1.10322 0.0365765 0)
(1.05689 0.0210037 0)
(1.09453 0.0277424 0)
(1.05084 0.0159746 0)
(1.08808 0.0210323 0)
(1.04625 0.012133 0)
(1.08324 0.0159678 0)
(1.04279 0.00919808 0)
(1.07958 0.012089 0)
(1.04017 0.00696741 0)
(1.07684 0.00915088 0)
(1.03818 0.00527065 0)
(1.07476 0.00692931 0)
(1.03667 0.00397711 0)
(1.07318 0.00523561 0)
(1.03553 0.00299446 0)
(1.07199 0.00394481 0)
(1.03467 0.00225217 0)
(1.07109 0.00296932 0)
(1.03402 0.00169276 0)
(1.07042 0.00223501 0)
(1.03353 0.00127108 0)
(1.0699 0.00168151 0)
(1.03315 0.00095319 0)
(1.06951 0.0012637 0)
(1.03287 0.000713685 0)
(1.06922 0.000948359 0)
(1.03266 0.000533477 0)
(1.06899 0.000710482 0)
(1.0325 0.000398192 0)
(1.06883 0.000531486 0)
(1.03238 0.000296802 0)
(1.0687 0.000397143 0)
(1.03229 0.000220858 0)
(1.0686 0.000296377 0)
(1.03222 0.000164002 0)
(1.06853 0.000220764 0)
(1.03216 0.000121517 0)
(1.06847 0.000164084 0)
(1.03213 8.98421e-05 0)
(1.06843 0.000121707 0)
(1.0321 6.63734e-05 0)
(1.0684 9.00838e-05 0)
(1.03208 4.89186e-05 0)
(1.06838 6.67391e-05 0)
(1.03206 3.63955e-05 0)
(1.06836 4.90738e-05 0)
(1.03205 2.66119e-05 0)
(1.06835 3.72061e-05 0)
(1.06834 2.57065e-05 0)
(1.01041 0.0440203 0)
(1.00231 0.0188999 0)
(1.03607 0.0799243 0)
(1.0154 0.0547652 0)
(1.06724 0.10441 0)
(1.04065 0.0821325 0)
(1.09708 0.117907 0)
(1.06978 0.0998126 0)
(1.12187 0.121961 0)
(1.09631 0.109052 0)
(1.13994 0.119111 0)
(1.11879 0.111162 0)
(1.15165 0.111033 0)
(1.13558 0.108034 0)
(1.15795 0.0986918 0)
(1.14791 0.100123 0)
(1.15922 0.0842603 0)
(1.15523 0.0892293 0)
(1.15671 0.0693721 0)
(1.15803 0.0765469 0)
(1.15202 0.0546884 0)
(1.15753 0.0624844 0)
(1.14613 0.0407907 0)
(1.15487 0.0485087 0)
(1.13985 0.0281124 0)
(1.15112 0.0355809 0)
(1.13403 0.0169461 0)
(1.14684 0.0237996 0)
(1.12929 0.00734183 0)
(1.14276 0.0133089 0)
(1.1259 -0.000905928 0)
(1.13941 0.00422048 0)
(1.12387 -0.00821468 0)
(1.13702 -0.00380655 0)
(1.1233 -0.0152152 0)
(1.13564 -0.0113496 0)
(1.12419 -0.0224423 0)
(1.13536 -0.0189688 0)
(1.12656 -0.0303269 0)
(1.13628 -0.0269522 0)
(1.13047 -0.0393482 0)
(1.13843 -0.0357947 0)
(1.13629 -0.0498874 0)
(1.14191 -0.0462628 0)
(1.14451 -0.0619914 0)
(1.14738 -0.0587987 0)
(1.15554 -0.0760401 0)
(1.15538 -0.0732964 0)
(1.17023 -0.092997 0)
(1.16604 -0.0905899 0)
(1.18986 -0.113153 0)
(1.18116 -0.111577 0)
(1.21583 -0.136352 0)
(1.20158 -0.13637 0)
(1.25022 -0.162447 0)
(1.22938 -0.165488 0)
(1.29583 -0.190447 0)
(1.26745 -0.199007 0)
(1.35565 -0.217099 0)
(1.31949 -0.235495 0)
(1.42977 -0.234619 0)
(1.38866 -0.268032 0)
(1.50877 -0.233743 0)
(1.46166 -0.278281 0)
(1.5838 -0.209314 0)
(1.53572 -0.260316 0)
(1.64492 -0.153958 0)
(1.58901 -0.211586 0)
(1.6815 -0.0711824 0)
(1.61143 -0.127038 0)
(1.6919 0.0178563 0)
(1.61422 -0.0269731 0)
(1.68077 0.101463 0)
(1.60849 0.0667092 0)
(1.64736 0.173252 0)
(1.60293 0.156608 0)
(1.59297 0.222727 0)
(1.57788 0.229905 0)
(1.52574 0.246085 0)
(1.53335 0.272801 0)
(1.45353 0.245463 0)
(1.47561 0.286118 0)
(1.38397 0.226643 0)
(1.41208 0.273655 0)
(1.32169 0.197707 0)
(1.34968 0.244798 0)
(1.26973 0.165319 0)
(1.29458 0.207578 0)
(1.22847 0.133844 0)
(1.24985 0.16926 0)
(1.19678 0.105754 0)
(1.21544 0.134124 0)
(1.17295 0.0821291 0)
(1.18981 0.104205 0)
(1.15524 0.0632002 0)
(1.17102 0.0799286 0)
(1.1422 0.048402 0)
(1.15738 0.0609126 0)
(1.13265 0.0368183 0)
(1.1476 0.0461292 0)
(1.12565 0.0278603 0)
(1.14046 0.0347412 0)
(1.12043 0.021065 0)
(1.13527 0.0262465 0)
(1.11651 0.015919 0)
(1.13156 0.0198934 0)
(1.11359 0.0120218 0)
(1.12874 0.0150025 0)
(1.1114 0.00909417 0)
(1.12665 0.0113424 0)
(1.10974 0.00688345 0)
(1.12507 0.00859635 0)
(1.10848 0.00520111 0)
(1.12387 0.0064928 0)
(1.10754 0.0039232 0)
(1.12296 0.00488621 0)
(1.10683 0.00295784 0)
(1.12228 0.00367791 0)
(1.10629 0.00222959 0)
(1.12177 0.0027722 0)
(1.10588 0.00167926 0)
(1.12138 0.00208994 0)
(1.10557 0.00126312 0)
(1.12109 0.00157417 0)
(1.10534 0.00094857 0)
(1.12086 0.00118402 0)
(1.10516 0.000711149 0)
(1.12069 0.000888799 0)
(1.10502 0.000532488 0)
(1.12056 0.000666278 0)
(1.10492 0.000398309 0)
(1.12047 0.000499266 0)
(1.10484 0.000297518 0)
(1.12039 0.000373761 0)
(1.10479 0.000221796 0)
(1.12034 0.000279302 0)
(1.10474 0.000164998 0)
(1.12029 0.000208244 0)
(1.10471 0.000122499 0)
(1.12026 0.000154983 0)
(1.10468 9.08633e-05 0)
(1.12024 0.000115119 0)
(1.10466 6.71981e-05 0)
(1.12022 8.55284e-05 0)
(1.10465 5.00978e-05 0)
(1.12021 6.3052e-05 0)
(1.10464 3.64328e-05 0)
(1.1202 4.7783e-05 0)
(1.12019 3.26011e-05 0)
(1.00592 0.0304926 0)
(1.00138 0.0129757 0)
(1.02214 0.0571618 0)
(1.00939 0.0385467 0)
(1.04453 0.0773964 0)
(1.02619 0.0597489 0)
(1.06919 0.0908316 0)
(1.04781 0.075146 0)
(1.09323 0.098083 0)
(1.07042 0.0850163 0)
(1.11446 0.0999254 0)
(1.09197 0.0899298 0)
(1.13201 0.0970087 0)
(1.11104 0.0904844 0)
(1.14515 0.090419 0)
(1.12722 0.0869843 0)
(1.15389 0.0811914 0)
(1.13937 0.0804948 0)
(1.15879 0.0696091 0)
(1.14835 0.0716445 0)
(1.16036 0.0565396 0)
(1.15365 0.0609146 0)
(1.1598 0.043537 0)
(1.15619 0.0490665 0)
(1.158 0.0314224 0)
(1.15686 0.0373833 0)
(1.15547 0.0202823 0)
(1.15613 0.0263251 0)
(1.15284 0.010295 0)
(1.15456 0.0159425 0)
(1.15051 0.00142905 0)
(1.15285 0.00654905 0)
(1.14871 -0.00680315 0)
(1.15119 -0.00200975 0)
(1.14765 -0.014935 0)
(1.1498 -0.0102887 0)
(1.14741 -0.0232677 0)
(1.14887 -0.0187279 0)
(1.14806 -0.0321213 0)
(1.1485 -0.0276002 0)
(1.14974 -0.0423359 0)
(1.14887 -0.0374698 0)
(1.15285 -0.0548138 0)
(1.15012 -0.0493825 0)
(1.15786 -0.0698033 0)
(1.15266 -0.0638069 0)
(1.16551 -0.0875326 0)
(1.15702 -0.0809439 0)
(1.1766 -0.108767 0)
(1.1639 -0.101681 0)
(1.19215 -0.134405 0)
(1.1743 -0.12712 0)
(1.21413 -0.165307 0)
(1.18958 -0.158356 0)
(1.24531 -0.202233 0)
(1.21189 -0.196667 0)
(1.28943 -0.244985 0)
(1.24425 -0.243124 0)
(1.35065 -0.28862 0)
(1.29097 -0.296721 0)
(1.42234 -0.316448 0)
(1.35117 -0.339721 0)
(1.48854 -0.31116 0)
(1.39651 -0.344476 0)
(1.54142 -0.273054 0)
(1.40842 -0.313195 -5.27587e-19)
(1.56554 -0.199282 0)
(1.37234 -0.235714 0)
(1.54522 -0.0934622 0)
(1.28305 -0.106715 -4.54324e-17)
(1.52956 0.0161987 0)
(1.22465 -0.0113129 -4.49994e-32)
(1.53432 0.120704 0)
(1.23748 0.0619483 2.50727e-17)
(1.53261 0.215875 0)
(1.27928 0.158319 0)
(1.51602 0.282294 0)
(1.31955 0.246493 0)
(1.48198 0.313558 0)
(1.37577 0.30685 0)
(1.43235 0.314384 0)
(1.37874 0.335746 0)
(1.37746 0.291881 0)
(1.35085 0.328539 0)
(1.32229 0.254533 0)
(1.31225 0.299973 0)
(1.27441 0.211376 0)
(1.27188 0.255457 0)
(1.23663 0.169408 0)
(1.23637 0.207037 0)
(1.20837 0.132448 0)
(1.20881 0.162391 0)
(1.18779 0.101904 0)
(1.18885 0.124785 0)
(1.17305 0.0776064 0)
(1.17474 0.0946598 0)
(1.16265 0.0586486 0)
(1.16491 0.0713135 0)
(1.1553 0.0440317 0)
(1.15815 0.0534792 0)
(1.15007 0.0330651 0)
(1.15345 0.0399795 0)
(1.14635 0.0250313 0)
(1.15015 0.029967 0)
(1.14371 0.0189961 0)
(1.14794 0.0225302 0)
(1.14178 0.0143724 0)
(1.14633 0.0169364 0)
(1.14031 0.0108767 0)
(1.1452 0.012806 0)
(1.13918 0.00821358 0)
(1.14437 0.0097291 0)
(1.13832 0.00617146 0)
(1.14371 0.00734699 0)
(1.13769 0.00462892 0)
(1.14323 0.00552071 0)
(1.13722 0.00348109 0)
(1.14287 0.00415121 0)
(1.13686 0.00262406 0)
(1.1426 0.00313207 0)
(1.13658 0.00197851 0)
(1.14238 0.00236474 0)
(1.13637 0.00149035 0)
(1.14221 0.0017835 0)
(1.13621 0.0011211 0)
(1.14209 0.00134308 0)
(1.13609 0.000842341 0)
(1.14199 0.00100845 0)
(1.136 0.000632509 0)
(1.14192 0.000756268 0)
(1.13594 0.000474589 0)
(1.14187 0.000567761 0)
(1.13588 0.000355595 0)
(1.14183 0.000426052 0)
(1.13584 0.000265927 0)
(1.1418 0.000319109 0)
(1.13581 0.000198465 0)
(1.14177 0.000238371 0)
(1.13579 0.000147828 0)
(1.14175 0.000177795 0)
(1.13577 0.000109969 0)
(1.14174 0.000132378 0)
(1.13576 8.15193e-05 0)
(1.14173 9.85199e-05 0)
(1.13575 6.08134e-05 0)
(1.14172 7.27391e-05 0)
(1.13574 4.39792e-05 0)
(1.14172 5.49756e-05 0)
(1.14171 3.71137e-05 0)
(1.00372 0.0217128 0)
(1.00091 0.0092599 0)
(1.01452 0.0414623 0)
(1.00626 0.0277472 0)
(1.03047 0.0574565 0)
(1.01796 0.043798 0)
(1.04934 0.0691456 0)
(1.03389 0.0562689 0)
(1.06924 0.0766593 0)
(1.05177 0.0651198 0)
(1.08861 0.0802783 0)
(1.07009 0.0705576 0)
(1.10635 0.0802585 0)
(1.08776 0.0727436 0)
(1.12151 0.0770095 0)
(1.10395 0.0718297 0)
(1.13377 0.0710473 0)
(1.11782 0.0682353 0)
(1.14312 0.06296 0)
(1.12933 0.0622886 0)
(1.14952 0.0533219 0)
(1.13816 0.0545196 0)
(1.15321 0.042824 0)
(1.14443 0.045373 0)
(1.15491 0.032275 0)
(1.14837 0.0356908 0)
(1.15519 0.0219833 0)
(1.15054 0.0260449 0)
(1.15456 0.0122006 0)
(1.15128 0.0165709 0)
(1.15348 0.00318716 0)
(1.15116 0.00762268 0)
(1.15223 -0.00535069 0)
(1.15036 -0.000752365 0)
(1.151 -0.0138981 0)
(1.14921 -0.00906136 0)
(1.14992 -0.0228223 0)
(1.14786 -0.0176475 0)
(1.14921 -0.0326493 0)
(1.14644 -0.0268875 0)
(1.14916 -0.044154 0)
(1.14518 -0.0374194 0)
(1.14985 -0.057959 0)
(1.14422 -0.050073 0)
(1.15155 -0.0745371 0)
(1.14362 -0.0655118 0)
(1.15504 -0.094702 0)
(1.14392 -0.0844287 0)
(1.16116 -0.119591 0)
(1.14575 -0.1078 1.03533e-32)
(1.17096 -0.150545 0)
(1.1499 -0.136925 -1.02789e-32)
(1.18616 -0.189181 0)
(1.15744 -0.17355 0)
(1.20911 -0.237225 0)
(1.16969 -0.219626 0)
(1.24306 -0.29508 0)
(1.18837 -0.277066 0)
(1.29001 -0.349189 0)
(1.21507 -0.343678 0)
(1.32662 -0.368951 0)
(1.23228 -0.376332 0)
(1.32408 -0.336464 -5.27587e-19)
(1.20508 -0.341935 -2.99336e-18)
(1.23028 -0.249341 -5.27587e-19)
(1.08945 -0.186882 -5.27587e-19)
(1.11026 -0.12188 -4.54324e-17)
(0.592093 0.565093 0)
(0.963769 -0.0232027 -4.54324e-17)
(0.505342 0.373749 -4.54324e-17)
(0.925837 0.0237411 2.50727e-17)
(0.457504 0.272397 -4.49994e-32)
(0.988182 0.0743739 2.50727e-17)
(0.473643 0.255509 2.50727e-17)
(1.06939 0.145439 0)
(0.511348 0.202515 0)
(1.1793 0.239354 0)
(0.945165 0.0967617 0)
(1.2699 0.320459 0)
(1.065 0.21625 1.83048e-19)
(1.29458 0.346422 0)
(1.17133 0.311072 0)
(1.28498 0.334722 0)
(1.20891 0.338131 0)
(1.262 0.299589 0)
(1.2115 0.322957 0)
(1.23365 0.250196 0)
(1.20271 0.283805 0)
(1.20847 0.199433 0)
(1.18825 0.232213 0)
(1.18937 0.154356 0)
(1.17493 0.181496 0)
(1.17582 0.117304 0)
(1.16531 0.138334 0)
(1.16655 0.0881962 0)
(1.15897 0.103934 0)
(1.16036 0.0659758 0)
(1.15497 0.0774983 0)
(1.15627 0.0492646 0)
(1.15256 0.0575736 0)
(1.15352 0.0367831 0)
(1.15116 0.0427322 0)
(1.15169 0.0274407 0)
(1.15037 0.0317878 0)
(1.15051 0.0204525 0)
(1.14996 0.0237143 0)
(1.14974 0.0153421 0)
(1.14978 0.0177035 0)
(1.14925 0.0116511 0)
(1.14971 0.0132997 0)
(1.14888 0.00888099 0)
(1.14972 0.010096 0)
(1.1486 0.0067262 0)
(1.14975 0.00762551 0)
(1.1484 0.00506783 0)
(1.14979 0.00572207 0)
(1.14825 0.00381408 0)
(1.1498 0.00430844 0)
(1.14811 0.00287637 0)
(1.1498 0.00326496 0)
(1.14801 0.00217086 0)
(1.1498 0.00247048 0)
(1.14793 0.00163606 0)
(1.14979 0.00186464 0)
(1.14787 0.00122936 0)
(1.14979 0.0014038 0)
(1.14782 0.000921114 0)
(1.14979 0.0010529 0)
(1.14779 0.000690379 0)
(1.14979 0.000790138 0)
(1.14776 0.000518274 0)
(1.14978 0.000594113 0)
(1.14774 0.000388802 0)
(1.14978 0.000446512 0)
(1.14772 0.000290934 0)
(1.14978 0.00033494 0)
(1.14771 0.000217224 0)
(1.14977 0.000250466 0)
(1.1477 0.00016201 0)
(1.14977 0.000187007 0)
(1.1477 0.0001207 0)
(1.14977 0.000139407 0)
(1.14769 8.95789e-05 0)
(1.14977 0.000103817 0)
(1.14769 6.67756e-05 0)
(1.14977 7.66842e-05 0)
(1.14768 4.80173e-05 0)
(1.14977 5.77837e-05 0)
(1.14977 3.86485e-05 0)
(1.00258 0.0156979 0)
(1.00066 0.00668045 0)
(1.01027 0.0303094 0)
(1.00454 0.0200555 0)
(1.02205 0.0426252 0)
(1.0132 0.0320165 0)
(1.03661 0.052142 0)
(1.02535 0.0417122 0)
(1.05273 0.0588631 0)
(1.0396 0.0489973 0)
(1.06933 0.0628532 0)
(1.05489 0.0539593 0)
(1.08545 0.064151 0)
(1.07044 0.0566256 0)
(1.10029 0.0628824 0)
(1.08545 0.0569862 0)
(1.11338 0.059298 0)
(1.09925 0.0551509 0)
(1.12436 0.0537304 0)
(1.11145 0.0513045 0)
(1.1331 0.0465587 0)
(1.12172 0.0457786 0)
(1.13955 0.0382969 0)
(1.12993 0.0389294 0)
(1.14395 0.0295487 0)
(1.13606 0.03129 0)
(1.14666 0.0207559 0)
(1.14031 0.0233365 0)
(1.14788 0.0121444 0)
(1.14291 0.0153463 0)
(1.14799 0.00382854 0)
(1.14409 0.00751685 0)
(1.14733 -0.00432253 0)
(1.14412 -9.65471e-05 0)
(1.14608 -0.0126501 0)
(1.14322 -0.00781498 0)
(1.14437 -0.021532 0)
(1.14152 -0.0159355 0)
(1.14237 -0.0314754 0)
(1.13912 -0.0248815 0)
(1.1402 -0.0431558 0)
(1.13611 -0.0352529 0)
(1.13794 -0.0573739 0)
(1.13252 -0.0478141 0)
(1.13583 -0.0749842 0)
(1.12841 -0.0634015 0)
(1.13435 -0.0969243 1.03533e-32)
(1.12399 -0.0829503 0)
(1.13407 -0.124382 7.99322e-35)
(1.11957 -0.10752 1.03533e-32)
(1.13564 -0.159025 -1.02789e-32)
(1.1155 -0.138487 -1.02789e-32)
(1.1398 -0.202894 0)
(1.11203 -0.177712 0)
(1.14705 -0.257975 0)
(1.10889 -0.226874 0)
(1.15684 -0.322876 0)
(1.1049 -0.286853 0)
(1.15842 -0.365809 0)
(1.09114 -0.345265 0)
(1.1125 -0.332946 -2.99336e-18)
(1.04018 -0.330414 -1.29792e-17)
(1.00568 -0.19652 -2.99336e-18)
(0.907561 -0.198254 -2.99336e-18)
(1.11106 -0.0507815 0)
(0.442725 0.329433 0)
(0.47744 0 0)
(0 -0.0151989 0)
(0.274373 0 0)
(0 -0.00665805 0)
(0.278149 0 0)
(0 0.00655011 0)
(0.327996 0 0)
(0 0.01025 0)
(0.477122 0.017232 0)
(0 0.0236699 0)
(0.860641 0.0782818 1.83048e-19)
(0.390934 0.0951068 0)
(0.95952 0.195562 1.83048e-19)
(0.803305 0.0659233 1.91899e-19)
(1.08151 0.297425 0)
(0.928542 0.18908 7.43923e-18)
(1.13291 0.323837 0)
(1.03328 0.286731 0)
(1.15309 0.305882 0)
(1.07768 0.302776 0)
(1.15738 0.264822 0)
(1.10343 0.279517 0)
(1.15473 0.213642 0)
(1.11753 0.234862 0)
(1.15112 0.165064 0)
(1.12464 0.18511 0)
(1.14865 0.124639 0)
(1.12935 0.1408 0)
(1.14746 0.0929581 0)
(1.13337 0.105121 0)
(1.1472 0.0689001 0)
(1.13691 0.0777615 0)
(1.14747 0.0509416 0)
(1.13995 0.0573009 0)
(1.148 0.0376789 0)
(1.14252 0.0422076 0)
(1.14862 0.0279778 0)
(1.14466 0.0311614 0)
(1.14923 0.0208656 0)
(1.1464 0.0231094 0)
(1.14974 0.0155862 0)
(1.1478 0.0171949 0)
(1.15018 0.0116968 0)
(1.14886 0.0128598 0)
(1.15059 0.00880467 0)
(1.14974 0.0096862 0)
(1.15093 0.00659548 0)
(1.15043 0.00728582 0)
(1.15118 0.00495341 0)
(1.15097 0.00546908 0)
(1.15135 0.00376376 0)
(1.15135 0.00413442 0)
(1.15148 0.00286746 0)
(1.15164 0.00313942 0)
(1.15157 0.00217311 0)
(1.15187 0.00237596 0)
(1.15165 0.0016421 0)
(1.15204 0.00179147 0)
(1.15171 0.00123522 0)
(1.15217 0.00134442 0)
(1.15175 0.000925972 0)
(1.15226 0.00100836 0)
(1.15178 0.000695602 0)
(1.15233 0.000760847 0)
(1.1518 0.000523346 0)
(1.15238 0.000573848 0)
(1.15181 0.000393185 0)
(1.15242 0.000431774 0)
(1.15183 0.000294679 0)
(1.15245 0.000324163 0)
(1.15183 0.00022036 0)
(1.15247 0.000242395 0)
(1.15184 0.0001645 0)
(1.15249 0.000181039 0)
(1.15184 0.0001226 0)
(1.1525 0.000135055 0)
(1.15185 9.09886e-05 0)
(1.15251 0.00010059 0)
(1.15185 6.7772e-05 0)
(1.15251 7.43387e-05 0)
(1.15185 4.8508e-05 0)
(1.15252 5.58633e-05 0)
(1.15252 3.70406e-05 0)
(1.00195 0.0112829 0)
(1.00051 0.00473492 0)
(1.00779 0.0219273 0)
(1.00353 0.0142161 0)
(1.01695 0.0311493 0)
(1.01034 0.0228559 0)
(1.02858 0.0385362 0)
(1.02009 0.030074 0)
(1.04188 0.0440244 0)
(1.03184 0.0356983 0)
(1.0561 0.0476394 0)
(1.04485 0.0397379 0)
(1.07052 0.0493568 0)
(1.05855 0.0422068 0)
(1.08445 0.0491504 0)
(1.07231 0.0430552 0)
(1.09736 0.0470774 0)
(1.08552 0.0422462 0)
(1.10882 0.0433081 0)
(1.09771 0.0398423 0)
(1.11857 0.0381203 0)
(1.1085 0.0360265 0)
(1.12644 0.0318939 0)
(1.11763 0.0310656 0)
(1.13241 0.025053 0)
(1.12494 0.0253216 0)
(1.13659 0.0179313 0)
(1.13042 0.0191507 0)
(1.13914 0.0107593 0)
(1.13416 0.0128016 0)
(1.14021 0.00365081 0)
(1.13626 0.00644531 0)
(1.14001 -0.00351073 0)
(1.13687 0.000100849 0)
(1.13868 -0.0109938 0)
(1.13608 -0.0064823 0)
(1.13629 -0.0191445 0)
(1.13397 -0.0135424 0)
(1.13288 -0.0284599 0)
(1.13054 -0.0214752 0)
(1.12846 -0.0396109 0)
(1.12574 -0.0308333 0)
(1.123 -0.0534237 0)
(1.11944 -0.0423496 0)
(1.11651 -0.0708323 0)
(1.11149 -0.0569169 0)
(1.10908 -0.0928593 0)
(1.10171 -0.0755167 0)
(1.10073 -0.120707 0)
(1.08991 -0.0991736 1.36019e-33)
(1.09134 -0.155887 0)
(1.07577 -0.129097 -1.35765e-33)
(1.08015 -0.199784 0)
(1.05866 -0.166523 0)
(1.06457 -0.252332 0)
(1.03649 -0.211291 0)
(1.03826 -0.303994 0)
(1.00217 -0.260541 0)
(0.988161 -0.296069 -1.29792e-17)
(0.940735 -0.295165 -5.05952e-17)
(0.899131 -0.155695 -1.29792e-17)
(0.821834 -0.228909 -1.29792e-17)
(0.979697 -0.0233101 0)
(0.371441 0.314462 0)
(0.155154 0 0)
(0 -0.00744935 0)
(0.00592148 0 0)
(0 0.000169524 0)
(0.0128849 0 0)
(0 0.000488343 0)
(0.0273737 0 0)
(0 0.000738951 0)
(0.0756205 0 0)
(0 0.000389678 0)