/*--------------------------------*- C++ -*----------------------------------*\
| =========                 |                                                 |
| \\      /  F ield         | OpenFOAM: The Open Source CFD Toolbox           |
|  \\    /   O peration     | Version:  2206                                  |
|   \\  /    A nd           | Website:  www.openfoam.com                      |
|    \\/     M anipulation  |                                                 |
\*---------------------------------------------------------------------------*/
FoamFile
{
    version     2.0;
    format      ascii;
    arch        "LSB;label=32;scalar=64";
    class       volScalarField;
    location    "0.1";
    object      k;
}
// * * * * * * * * * * * * * * * * * * * * * * * * * * * * * * * * * * * * * //

dimensions      [0 2 -2 0 0 0 0];

internalField   nonuniform List<scalar> 
1875
(
8.68129e-05
5.86273e-05
4.91746e-05
4.73502e-05
4.7309e-05
4.75334e-05
4.76563e-05
4.76792e-05
4.7655e-05
4.76161e-05
4.75749e-05
4.75343e-05
4.74934e-05
4.74501e-05
4.74019e-05
4.7346e-05
4.72796e-05
4.71996e-05
4.71029e-05
4.69869e-05
4.685e-05
4.66922e-05
4.65166e-05
4.63308e-05
4.61468e-05
4.5981e-05
4.58522e-05
4.57773e-05
4.57657e-05
4.58174e-05
4.59242e-05
4.6071e-05
4.62411e-05
4.64188e-05
4.65922e-05
4.67533e-05
4.68972e-05
4.70217e-05
4.71268e-05
4.72138e-05
4.72845e-05
4.73414e-05
4.73867e-05
4.74223e-05
4.74503e-05
4.7472e-05
4.74888e-05
4.75019e-05
4.75119e-05
4.75196e-05
4.75255e-05
4.753e-05
4.75335e-05
4.75362e-05
4.75382e-05
4.75398e-05
4.7541e-05
4.75419e-05
4.75426e-05
4.75431e-05
4.75435e-05
4.75438e-05
4.7544e-05
4.75442e-05
4.75444e-05
4.75445e-05
4.75445e-05
4.75446e-05
4.75447e-05
4.75447e-05
4.75447e-05
4.75447e-05
4.75447e-05
4.75437e-05
4.75376e-05
8.64465e-05
5.88651e-05
4.8346e-05
4.48531e-05
4.40392e-05
4.40547e-05
4.42193e-05
4.43455e-05
4.44136e-05
4.44428e-05
4.44518e-05
4.44516e-05
4.44475e-05
4.44417e-05
4.44348e-05
4.44267e-05
4.44168e-05
4.44042e-05
4.43877e-05
4.43652e-05
4.43343e-05
4.42916e-05
4.4232e-05
4.41515e-05
4.40469e-05
4.39248e-05
4.38059e-05
4.37223e-05
4.36981e-05
4.37335e-05
4.38192e-05
4.39287e-05
4.40386e-05
4.4134e-05
4.42096e-05
4.42668e-05
4.43096e-05
4.43416e-05
4.43657e-05
4.43839e-05
4.43978e-05
4.44085e-05
4.44168e-05
4.44233e-05
4.44283e-05
4.44323e-05
4.44354e-05
4.44378e-05
4.44397e-05
4.44412e-05
4.44424e-05
4.44433e-05
4.4444e-05
4.44445e-05
4.44449e-05
4.44452e-05
4.44455e-05
4.44457e-05
4.44458e-05
4.44459e-05
4.4446e-05
4.44461e-05
4.44462e-05
4.44462e-05
4.44462e-05
4.44463e-05
4.44463e-05
4.44463e-05
4.44463e-05
4.44463e-05
4.44463e-05
4.44463e-05
4.44458e-05
4.44401e-05
4.43857e-05
8.63809e-05
5.87321e-05
4.81757e-05
4.44785e-05
4.34596e-05
4.3346e-05
4.34531e-05
4.3564e-05
4.36349e-05
4.36723e-05
4.36897e-05
4.36969e-05
4.36996e-05
4.37004e-05
4.37005e-05
4.37004e-05
4.37002e-05
4.36996e-05
4.36982e-05
4.36944e-05
4.36844e-05
4.36584e-05
4.35947e-05
4.34577e-05
4.3209e-05
4.28492e-05
4.24545e-05
4.21645e-05
4.20862e-05
4.22145e-05
4.25082e-05
4.28619e-05
4.31862e-05
4.34304e-05
4.35872e-05
4.36751e-05
4.37175e-05
4.37338e-05
4.37367e-05
4.37335e-05
4.37282e-05
4.37225e-05
4.37173e-05
4.37129e-05
4.37092e-05
4.37062e-05
4.37039e-05
4.3702e-05
4.37006e-05
4.36995e-05
4.36986e-05
4.3698e-05
4.36975e-05
4.36971e-05
4.36968e-05
4.36965e-05
4.36964e-05
4.36962e-05
4.36961e-05
4.36961e-05
4.3696e-05
4.3696e-05
4.36959e-05
4.36959e-05
4.36959e-05
4.36959e-05
4.36959e-05
4.36958e-05
4.36958e-05
4.36958e-05
4.36958e-05
4.36958e-05
4.36953e-05
4.36892e-05
4.36341e-05
8.63486e-05
5.85639e-05
4.80347e-05
4.43727e-05
4.3363e-05
4.32472e-05
4.33504e-05
4.34594e-05
4.353e-05
4.35677e-05
4.35854e-05
4.35931e-05
4.35961e-05
4.35974e-05
4.35981e-05
4.35989e-05
4.35997e-05
4.36005e-05
4.36001e-05
4.3594e-05
4.35654e-05
4.34636e-05
4.31721e-05
4.25032e-05
4.12909e-05
3.95872e-05
3.77912e-05
3.6518e-05
3.62335e-05
3.68959e-05
3.82164e-05
3.97469e-05
4.11536e-05
4.22254e-05
4.29281e-05
4.3331e-05
4.35342e-05
4.36229e-05
4.36533e-05
4.36573e-05
4.3651e-05
4.36416e-05
4.36321e-05
4.36239e-05
4.3617e-05
4.36115e-05
4.36072e-05
4.36038e-05
4.36012e-05
4.35991e-05
4.35976e-05
4.35964e-05
4.35954e-05
4.35947e-05
4.35942e-05
4.35937e-05
4.35934e-05
4.35932e-05
4.3593e-05
4.35928e-05
4.35927e-05
4.35926e-05
4.35926e-05
4.35925e-05
4.35925e-05
4.35925e-05
4.35924e-05
4.35924e-05
4.35924e-05
4.35924e-05
4.35924e-05
4.35923e-05
4.35918e-05
4.35857e-05
4.35305e-05
8.63357e-05
5.84742e-05
4.79401e-05
4.43139e-05
4.33344e-05
4.32314e-05
4.33384e-05
4.34478e-05
4.35184e-05
4.35563e-05
4.35746e-05
4.35827e-05
4.35863e-05
4.35882e-05
4.35896e-05
4.35912e-05
4.35932e-05
4.35945e-05
4.35901e-05
4.35555e-05
4.33999e-05
4.28662e-05
4.14357e-05
3.84598e-05
3.37204e-05
2.7979e-05
2.27326e-05
1.93878e-05
1.88985e-05
2.12097e-05
2.52512e-05
2.9887e-05
3.43717e-05
3.79998e-05
4.05433e-05
4.21054e-05
4.29573e-05
4.33736e-05
4.35551e-05
4.36229e-05
4.36406e-05
4.36387e-05
4.36303e-05
4.3621e-05
4.36126e-05
4.36056e-05
4.36e-05
4.35956e-05
4.35921e-05
4.35895e-05
4.35874e-05
4.35858e-05
4.35846e-05
4.35837e-05
4.3583e-05
4.35824e-05
4.3582e-05
4.35817e-05
4.35814e-05
4.35812e-05
4.35811e-05
4.3581e-05
4.35809e-05
4.35808e-05
4.35808e-05
4.35807e-05
4.35807e-05
4.35807e-05
4.35807e-05
4.35807e-05
4.35806e-05
4.35806e-05
4.35801e-05
4.3574e-05
4.35188e-05
8.63299e-05
5.84286e-05
4.78852e-05
4.42771e-05
4.33168e-05
4.32246e-05
4.33356e-05
4.34461e-05
4.35171e-05
4.35553e-05
4.35741e-05
4.35829e-05
4.35874e-05
4.35902e-05
4.35928e-05
4.35958e-05
4.35988e-05
4.35971e-05
4.35636e-05
4.33786e-05
4.26315e-05
4.03374e-05
3.51057e-05
2.6477e-05
1.64207e-05
8.21347e-06
3.57863e-06
1.67956e-06
1.52798e-06
3.08375e-06
6.95341e-06
1.29552e-05
2.05852e-05
2.80828e-05
3.42364e-05
3.85196e-05
4.11094e-05
4.24988e-05
4.31714e-05
4.34674e-05
4.35839e-05
4.36218e-05
4.36281e-05
4.36234e-05
4.36158e-05
4.36083e-05
4.3602e-05
4.35969e-05
4.35929e-05
4.35898e-05
4.35874e-05
4.35855e-05
4.35841e-05
4.3583e-05
4.35822e-05
4.35815e-05
4.3581e-05
4.35806e-05
4.35804e-05
4.35801e-05
4.358e-05
4.35798e-05
4.35797e-05
4.35796e-05
4.35796e-05
4.35795e-05
4.35795e-05
4.35795e-05
4.35795e-05
4.35794e-05
4.35794e-05
4.35794e-05
4.35789e-05
4.35728e-05
4.35176e-05
8.63268e-05
5.84042e-05
4.78531e-05
4.42537e-05
4.33044e-05
4.3219e-05
4.33329e-05
4.34445e-05
4.35161e-05
4.35549e-05
4.35743e-05
4.35839e-05
4.35892e-05
4.3593e-05
4.35969e-05
4.3601e-05
4.36024e-05
4.35791e-05
4.34142e-05
4.26305e-05
3.98632e-05
3.29682e-05
2.16568e-05
1.01702e-05
3.06687e-06
6.27493e-07
1.17738e-07
3.14939e-08
2.75841e-08
9.18947e-08
4.6851e-07
1.9131e-06
6.64423e-06
1.44876e-05
2.3477e-05
3.13329e-05
3.69212e-05
4.03098e-05
4.21214e-05
4.29975e-05
4.33861e-05
4.35436e-05
4.35997e-05
4.36145e-05
4.36141e-05
4.3609e-05
4.36032e-05
4.35981e-05
4.35938e-05
4.35905e-05
4.35879e-05
4.35859e-05
4.35844e-05
4.35832e-05
4.35823e-05
4.35816e-05
4.3581e-05
4.35806e-05
4.35803e-05
4.35801e-05
4.35799e-05
4.35797e-05
4.35796e-05
4.35796e-05
4.35795e-05
4.35794e-05
4.35794e-05
4.35794e-05
4.35794e-05
4.35793e-05
4.35793e-05
4.35793e-05
4.35787e-05
4.35727e-05
4.35175e-05
8.6325e-05
5.83904e-05
4.78334e-05
4.4238e-05
4.32951e-05
4.32139e-05
4.33299e-05
4.34424e-05
4.35146e-05
4.3554e-05
4.35741e-05
4.35844e-05
4.35905e-05
4.35953e-05
4.36001e-05
4.3604e-05
4.35938e-05
4.3487e-05
4.28784e-05
4.03495e-05
3.31844e-05
2.09416e-05
8.93632e-06
1.80646e-06
2.64086e-07
0.00015
0.00015
0.00015
0.00015
0.00015
0.00015
1.1169e-07
9.6388e-07
4.76448e-06
1.23305e-05
2.1756e-05
3.02533e-05
3.63418e-05
4.00207e-05
4.19782e-05
4.29233e-05
4.33442e-05
4.35174e-05
4.35818e-05
4.36015e-05
4.36044e-05
4.36016e-05
4.35975e-05
4.35937e-05
4.35905e-05
4.35879e-05
4.35859e-05
4.35844e-05
4.35832e-05
4.35823e-05
4.35816e-05
4.3581e-05
4.35806e-05
4.35803e-05
4.35801e-05
4.35799e-05
4.35797e-05
4.35796e-05
4.35795e-05
4.35795e-05
4.35794e-05
4.35794e-05
4.35794e-05
4.35793e-05
4.35793e-05
4.35793e-05
4.35793e-05
4.35787e-05
4.35727e-05
4.35175e-05
8.63238e-05
5.83818e-05
4.78205e-05
4.42269e-05
4.32876e-05
4.32092e-05
4.33266e-05
4.344e-05
4.35127e-05
4.35526e-05
4.35733e-05
4.35843e-05
4.35911e-05
4.35966e-05
4.36017e-05
4.36014e-05
4.3554e-05
4.32144e-05
4.15033e-05
3.55479e-05
2.35435e-05
1.05803e-05
2.64518e-06
2.57914e-07
0.00015
0.00015
0.00015
0.00015
0.00015
0.00015
0.00015
0.00015
5.50055e-08
1.01379e-06
4.9776e-06
1.29747e-05
2.26213e-05
3.10287e-05
3.68659e-05
4.0308e-05
4.211e-05
4.29717e-05
4.33542e-05
4.35123e-05
4.35722e-05
4.35918e-05
4.35959e-05
4.35947e-05
4.35921e-05
4.35895e-05
4.35872e-05
4.35854e-05
4.3584e-05
4.35829e-05
4.3582e-05
4.35814e-05
4.35809e-05
4.35805e-05
4.35802e-05
4.358e-05
4.35798e-05
4.35797e-05
4.35796e-05
4.35795e-05
4.35795e-05
4.35794e-05
4.35794e-05
4.35794e-05
4.35793e-05
4.35793e-05
4.35793e-05
4.35793e-05
4.35787e-05
4.35727e-05
4.35175e-05
8.6323e-05
5.8376e-05
4.78114e-05
4.42185e-05
4.32815e-05
4.32048e-05
4.33233e-05
4.34372e-05
4.35104e-05
4.35509e-05
4.3572e-05
4.35835e-05
4.35908e-05
4.35966e-05
4.36009e-05
4.35892e-05
4.34594e-05
4.26495e-05
3.90268e-05
2.89336e-05
1.51624e-05
4.95311e-06
7.42207e-07
0.00015
0.00015
0.00015
0.00015
0.00015
0.00015
0.00015
0.00015
0.00015
0.00015
1.31814e-07
1.32582e-06
6.28297e-06
1.51882e-05
2.49777e-05
3.28633e-05
3.80156e-05
4.09243e-05
4.24015e-05
4.30936e-05
4.3397e-05
4.35218e-05
4.35694e-05
4.35855e-05
4.35894e-05
4.35891e-05
4.35875e-05
4.35859e-05
4.35844e-05
4.35833e-05
4.35823e-05
4.35816e-05
4.35811e-05
4.35807e-05
4.35803e-05
4.35801e-05
4.35799e-05
4.35797e-05
4.35796e-05
4.35795e-05
4.35795e-05
4.35794e-05
4.35794e-05
4.35794e-05
4.35793e-05
4.35793e-05
4.35793e-05
4.35793e-05
4.35793e-05
4.35787e-05
4.35727e-05
4.35175e-05
8.63224e-05
5.8372e-05
4.78047e-05
4.42119e-05
4.32762e-05
4.32007e-05
4.33199e-05
4.34344e-05
4.3508e-05
4.35488e-05
4.35703e-05
4.3582e-05
4.35895e-05
4.35953e-05
4.3597e-05
4.35651e-05
4.33019e-05
4.18176e-05
3.60251e-05
2.33815e-05
1.00639e-05
2.60086e-06
4.72308e-06
0.00015
0.00015
0.00015
0.00015
0.00015
0.00015
0.00015
0.00015
0.00015
0.00015
2.57662e-08
6.50805e-07
3.95063e-06
1.11818e-05
2.05803e-05
2.92984e-05
3.56658e-05
3.95813e-05
4.17063e-05
4.27575e-05
4.32415e-05
4.34513e-05
4.35372e-05
4.35702e-05
4.35815e-05
4.35846e-05
4.35847e-05
4.35839e-05
4.3583e-05
4.35822e-05
4.35816e-05
4.3581e-05
4.35806e-05
4.35803e-05
4.35801e-05
4.35799e-05
4.35797e-05
4.35796e-05
4.35795e-05
4.35795e-05
4.35794e-05
4.35794e-05
4.35794e-05
4.35793e-05
4.35793e-05
4.35793e-05
4.35793e-05
4.35793e-05
4.35793e-05
4.35787e-05
4.35726e-05
4.35175e-05
8.63219e-05
5.8369e-05
4.77999e-05
4.42072e-05
4.32723e-05
4.31975e-05
4.33173e-05
4.34321e-05
4.35059e-05
4.3547e-05
4.35686e-05
4.35804e-05
4.35879e-05
4.35932e-05
4.35907e-05
4.35269e-05
4.306e-05
4.06225e-05
3.23936e-05
1.88318e-05
6.96986e-06
2.05688e-06
0.00015
0.00015
0.00015
0.00015
0.00015
0.00015
0.00015
0.00015
0.00015
0.00015
0.00015
0.00015
2.23688e-07
2.12539e-06
7.86026e-06
1.67684e-05
2.60727e-05
3.34554e-05
3.82736e-05
4.1008e-05
4.24099e-05
4.30761e-05
4.33743e-05
4.35012e-05
4.35526e-05
4.35724e-05
4.35793e-05
4.35814e-05
4.35817e-05
4.35814e-05
4.3581e-05
4.35806e-05
4.35803e-05
4.35801e-05
4.35799e-05
4.35797e-05
4.35796e-05
4.35796e-05
4.35795e-05
4.35794e-05
4.35794e-05
4.35794e-05
4.35793e-05
4.35793e-05
4.35793e-05
4.35793e-05
4.35793e-05
4.35793e-05
4.35793e-05
4.35792e-05
4.35787e-05
4.35726e-05
4.35175e-05
8.63216e-05
5.83675e-05
4.77985e-05
4.42074e-05
4.32744e-05
4.32007e-05
4.33208e-05
4.34355e-05
4.35091e-05
4.35498e-05
4.35713e-05
4.3583e-05
4.35905e-05
4.35955e-05
4.35897e-05
4.34947e-05
4.28082e-05
3.92971e-05
2.85787e-05
1.53904e-05
5.4151e-06
1.21971e-06
0.00015
0.00015
0.00015
0.00015
0.00015
0.00015
0.00015
0.00015
0.00015
0.00015
0.00015
0.00015
1.05255e-07
1.41133e-06
6.24607e-06
1.4682e-05
2.41666e-05
3.20775e-05
3.74258e-05
4.05414e-05
4.2172e-05
4.29607e-05
4.33198e-05
4.34755e-05
4.35402e-05
4.3566e-05
4.35757e-05
4.35792e-05
4.35802e-05
4.35804e-05
4.35802e-05
4.35801e-05
4.35799e-05
4.35798e-05
4.35796e-05
4.35796e-05
4.35795e-05
4.35794e-05
4.35794e-05
4.35794e-05
4.35793e-05
4.35793e-05
4.35793e-05
4.35793e-05
4.35793e-05
4.35793e-05
4.35793e-05
4.35793e-05
4.35793e-05
4.35792e-05
4.35787e-05
4.35726e-05
4.35175e-05
8.63216e-05
5.83685e-05
4.78025e-05
4.42153e-05
4.32853e-05
4.3213e-05
4.3333e-05
4.34468e-05
4.35194e-05
4.35593e-05
4.35801e-05
4.35917e-05
4.35994e-05
4.36057e-05
4.36049e-05
4.35411e-05
4.3053e-05
4.04936e-05
3.2035e-05
1.87676e-05
7.13431e-06
1.85463e-06
0.00015
0.00015
0.00015
0.00015
0.00015
0.00015
0.00015
0.00015
0.00015
0.00015
0.00015
0.00015
2.12965e-07
2.0466e-06
7.64082e-06
1.6392e-05
2.56118e-05
3.30257e-05
3.79467e-05
4.0793e-05
4.22821e-05
4.30051e-05
4.33363e-05
4.34811e-05
4.35418e-05
4.35663e-05
4.35757e-05
4.3579e-05
4.35801e-05
4.35803e-05
4.35802e-05
4.358e-05
4.35798e-05
4.35797e-05
4.35796e-05
4.35795e-05
4.35795e-05
4.35794e-05
4.35794e-05
4.35794e-05
4.35793e-05
4.35793e-05
4.35793e-05
4.35793e-05
4.35793e-05
4.35793e-05
4.35793e-05
4.35793e-05
4.35793e-05
4.35792e-05
4.35787e-05
4.35726e-05
4.35175e-05
8.63219e-05
5.83715e-05
4.78101e-05
4.42276e-05
4.33006e-05
4.32291e-05
4.33485e-05
4.3461e-05
4.35322e-05
4.35708e-05
4.35908e-05
4.36019e-05
4.36099e-05
4.36174e-05
4.36222e-05
4.35932e-05
4.33192e-05
4.17566e-05
3.58281e-05
2.33822e-05
1.02951e-05
2.64591e-06
4.70093e-06
0.00015
0.00015
0.00015
0.00015
0.00015
0.00015
0.00015
0.00015
0.00015
0.00015
2.38463e-08
6.17442e-07
3.78331e-06
1.08032e-05
1.99608e-05
2.85586e-05
3.49896e-05
3.90735e-05
4.13739e-05
4.25592e-05
4.31297e-05
4.339e-05
4.35035e-05
4.3551e-05
4.357e-05
4.35772e-05
4.35797e-05
4.35804e-05
4.35804e-05
4.35803e-05
4.35801e-05
4.35799e-05
4.35798e-05
4.35796e-05
4.35796e-05
4.35795e-05
4.35794e-05
4.35794e-05
4.35794e-05
4.35793e-05
4.35793e-05
4.35793e-05
4.35793e-05
4.35793e-05
4.35793e-05
4.35793e-05
4.35793e-05
4.35793e-05
4.35792e-05
4.35787e-05
4.35726e-05
4.35175e-05
8.63224e-05
5.83755e-05
4.78198e-05
4.4242e-05
4.33174e-05
4.32462e-05
4.33644e-05
4.34752e-05
4.35445e-05
4.35815e-05
4.36003e-05
4.36107e-05
4.36184e-05
4.36264e-05
4.36346e-05
4.36282e-05
4.34966e-05
4.26397e-05
3.89003e-05
2.89358e-05
1.53934e-05
5.40198e-06
7.75774e-07
0.00015
0.00015
0.00015
0.00015
0.00015
0.00015
0.00015
0.00015
0.00015
0.00015
1.23341e-07
1.25384e-06
5.97179e-06
1.4502e-05
2.39935e-05
3.18318e-05
3.7158e-05
4.03192e-05
4.20201e-05
4.28701e-05
4.32711e-05
4.34515e-05
4.35293e-05
4.35615e-05
4.35743e-05
4.35789e-05
4.35804e-05
4.35807e-05
4.35806e-05
4.35803e-05
4.35801e-05
4.35799e-05
4.35798e-05
4.35797e-05
4.35796e-05
4.35795e-05
4.35794e-05
4.35794e-05
4.35794e-05
4.35793e-05
4.35793e-05
4.35793e-05
4.35793e-05
4.35793e-05
4.35793e-05
4.35793e-05
4.35793e-05
4.35793e-05
4.35792e-05
4.35787e-05
4.35726e-05
4.35175e-05
8.6323e-05
5.83812e-05
4.78325e-05
4.42592e-05
4.33361e-05
4.32642e-05
4.33806e-05
4.34889e-05
4.35559e-05
4.35909e-05
4.3608e-05
4.36172e-05
4.36242e-05
4.36319e-05
4.36415e-05
4.36479e-05
4.36057e-05
4.32465e-05
4.14434e-05
3.54613e-05
2.38102e-05
1.1023e-05
2.77203e-06
2.54185e-07
0.00015
0.00015
0.00015
0.00015
0.00015
0.00015
0.00015
0.00015
5.03356e-08
9.62086e-07
4.7354e-06
1.21321e-05
2.12369e-05
2.94927e-05
3.55399e-05
3.93442e-05
4.14875e-05
4.25997e-05
4.31416e-05
4.33924e-05
4.35037e-05
4.3551e-05
4.35702e-05
4.35776e-05
4.35801e-05
4.35808e-05
4.35808e-05
4.35805e-05
4.35803e-05
4.35801e-05
4.35799e-05
4.35797e-05
4.35796e-05
4.35795e-05
4.35795e-05
4.35794e-05
4.35794e-05
4.35794e-05
4.35793e-05
4.35793e-05
4.35793e-05
4.35793e-05
4.35793e-05
4.35793e-05
4.35793e-05
4.35793e-05
4.35793e-05
4.35792e-05
4.35787e-05
4.35726e-05
4.35175e-05
8.6324e-05
5.83898e-05
4.78496e-05
4.42805e-05
4.33576e-05
4.32836e-05
4.33968e-05
4.35019e-05
4.35659e-05
4.35984e-05
4.36136e-05
4.36213e-05
4.3627e-05
4.36338e-05
4.3643e-05
4.36541e-05
4.36529e-05
4.35465e-05
4.28902e-05
4.02428e-05
3.31548e-05
2.12143e-05
9.3306e-06
1.9048e-06
2.66288e-07
0.00015
0.00015
0.00015
0.00015
0.00015
0.00015
1.02117e-07
9.21837e-07
4.51233e-06
1.16012e-05
2.03763e-05
2.85315e-05
3.47221e-05
3.87684e-05
4.11328e-05
4.24015e-05
4.30388e-05
4.33423e-05
4.34804e-05
4.35408e-05
4.3566e-05
4.3576e-05
4.35797e-05
4.35807e-05
4.35809e-05
4.35807e-05
4.35804e-05
4.35802e-05
4.358e-05
4.35798e-05
4.35797e-05
4.35796e-05
4.35795e-05
4.35795e-05
4.35794e-05
4.35794e-05
4.35793e-05
4.35793e-05
4.35793e-05
4.35793e-05
4.35793e-05
4.35793e-05
4.35793e-05
4.35793e-05
4.35793e-05
4.35793e-05
4.35792e-05
4.35787e-05
4.35726e-05
4.35175e-05
8.63255e-05
5.84037e-05
4.78747e-05
4.43087e-05
4.33832e-05
4.33045e-05
4.34128e-05
4.35135e-05
4.35739e-05
4.36036e-05
4.36166e-05
4.36225e-05
4.36267e-05
4.3632e-05
4.36399e-05
4.36509e-05
4.3662e-05
4.36484e-05
4.34773e-05
4.26318e-05
3.97717e-05
3.29927e-05
2.20821e-05
1.0668e-05
3.26586e-06
6.33512e-07
1.20526e-07
3.13767e-08
2.57329e-08
8.5237e-08
4.48139e-07
1.84768e-06
6.3479e-06
1.36268e-05
2.19243e-05
2.94072e-05
3.50854e-05
3.88581e-05
4.1117e-05
4.23627e-05
4.30062e-05
4.33212e-05
4.34686e-05
4.35346e-05
4.35631e-05
4.35747e-05
4.35791e-05
4.35805e-05
4.35808e-05
4.35806e-05
4.35804e-05
4.35802e-05
4.358e-05
4.35798e-05
4.35797e-05
4.35796e-05
4.35795e-05
4.35794e-05
4.35794e-05
4.35794e-05
4.35793e-05
4.35793e-05
4.35793e-05
4.35793e-05
4.35793e-05
4.35793e-05
4.35793e-05
4.35793e-05
4.35793e-05
4.35793e-05
4.35793e-05
4.35792e-05
4.35787e-05
4.35726e-05
4.35175e-05
8.63281e-05
5.84283e-05
4.79143e-05
4.43478e-05
4.34145e-05
4.33269e-05
4.34277e-05
4.35227e-05
4.35789e-05
4.36056e-05
4.36164e-05
4.36206e-05
4.36233e-05
4.3627e-05
4.3633e-05
4.3642e-05
4.36538e-05
4.36633e-05
4.36399e-05
4.34493e-05
4.2662e-05
4.03327e-05
3.52105e-05
2.68791e-05
1.69781e-05
8.60209e-06
3.74492e-06
1.73577e-06
1.52994e-06
3.0168e-06
6.71459e-06
1.23562e-05
1.92775e-05
2.62436e-05
3.22056e-05
3.66673e-05
3.9656e-05
4.14817e-05
4.2515e-05
4.3064e-05
4.33406e-05
4.34738e-05
4.35352e-05
4.35624e-05
4.35739e-05
4.35785e-05
4.358e-05
4.35804e-05
4.35804e-05
4.35802e-05
4.358e-05
4.35799e-05
4.35797e-05
4.35796e-05
4.35795e-05
4.35795e-05
4.35794e-05
4.35794e-05
4.35794e-05
4.35793e-05
4.35793e-05
4.35793e-05
4.35793e-05
4.35793e-05
4.35793e-05
4.35793e-05
4.35793e-05
4.35793e-05
4.35793e-05
4.35793e-05
4.35793e-05
4.35792e-05
4.35787e-05
4.35726e-05
4.35175e-05
8.63331e-05
5.84746e-05
4.798e-05
4.44048e-05
4.34533e-05
4.33499e-05
4.34396e-05
4.35277e-05
4.35797e-05
4.36039e-05
4.36131e-05
4.3616e-05
4.36174e-05
4.36196e-05
4.36237e-05
4.36301e-05
4.36392e-05
4.36501e-05
4.36572e-05
4.36332e-05
4.34806e-05
4.29393e-05
4.15149e-05
3.86087e-05
3.39982e-05
2.83659e-05
2.31353e-05
1.96556e-05
1.88161e-05
2.06129e-05
2.41827e-05
2.84515e-05
3.26654e-05
3.62747e-05
3.90223e-05
4.09133e-05
4.21071e-05
4.28073e-05
4.3193e-05
4.33944e-05
4.34948e-05
4.35427e-05
4.35647e-05
4.35743e-05
4.35783e-05
4.35798e-05
4.35803e-05
4.35804e-05
4.35803e-05
4.35802e-05
4.35801e-05
4.358e-05
4.35799e-05
4.35799e-05
4.35799e-05
4.35798e-05
4.35798e-05
4.35798e-05
4.35798e-05
4.35798e-05
4.35798e-05
4.35798e-05
4.35797e-05
4.35797e-05
4.35797e-05
4.35797e-05
4.35797e-05
4.35797e-05
4.35797e-05
4.35797e-05
4.35797e-05
4.35797e-05
4.35792e-05
4.35731e-05
4.35179e-05
8.63448e-05
5.85658e-05
4.80895e-05
4.44863e-05
4.34999e-05
4.33731e-05
4.34493e-05
4.3531e-05
4.35803e-05
4.36034e-05
4.36121e-05
4.36146e-05
4.36156e-05
4.3617e-05
4.36196e-05
4.3624e-05
4.36302e-05
4.36379e-05
4.36462e-05
4.36503e-05
4.36318e-05
4.3538e-05
4.32529e-05
4.25936e-05
4.13996e-05
3.97179e-05
3.79149e-05
3.6532e-05
3.59838e-05
3.63045e-05
3.73454e-05
3.87265e-05
4.01129e-05
4.12878e-05
4.21665e-05
4.27613e-05
4.31323e-05
4.33484e-05
4.34671e-05
4.35291e-05
4.35602e-05
4.35751e-05
4.35819e-05
4.35849e-05
4.35861e-05
4.35866e-05
4.35867e-05
4.35868e-05
4.35868e-05
4.35868e-05
4.35868e-05
4.35868e-05
4.35868e-05
4.35868e-05
4.35868e-05
4.35868e-05
4.35868e-05
4.35868e-05
4.35868e-05
4.35868e-05
4.35868e-05
4.35868e-05
4.35868e-05
4.35868e-05
4.35868e-05
4.35868e-05
4.35868e-05
4.35868e-05
4.35868e-05
4.35868e-05
4.35868e-05
4.35868e-05
4.35862e-05
4.35801e-05
4.35248e-05
8.63746e-05
5.8737e-05
4.82426e-05
4.45994e-05
4.35855e-05
4.3443e-05
4.35134e-05
4.35942e-05
4.36449e-05
4.36701e-05
4.36807e-05
4.36846e-05
4.36861e-05
4.36872e-05
4.36889e-05
4.36913e-05
4.36947e-05
4.36987e-05
4.37029e-05
4.37057e-05
4.37029e-05
4.36842e-05
4.36268e-05
4.3494e-05
4.32455e-05
4.28787e-05
4.24595e-05
4.21088e-05
4.19273e-05
4.19372e-05
4.21317e-05
4.2436e-05
4.27636e-05
4.30527e-05
4.32749e-05
4.34295e-05
4.35288e-05
4.35886e-05
4.3623e-05
4.3642e-05
4.36523e-05
4.36579e-05
4.3661e-05
4.36628e-05
4.36639e-05
4.36646e-05
4.36651e-05
4.36655e-05
4.36658e-05
4.3666e-05
4.36662e-05
4.36663e-05
4.36664e-05
4.36665e-05
4.36666e-05
4.36667e-05
4.36667e-05
4.36667e-05
4.36668e-05
4.36668e-05
4.36668e-05
4.36668e-05
4.36668e-05
4.36668e-05
4.36668e-05
4.36668e-05
4.36668e-05
4.36668e-05
4.36668e-05
4.36668e-05
4.36668e-05
4.36668e-05
4.36663e-05
4.36601e-05
4.36042e-05
8.64389e-05
5.88682e-05
4.83862e-05
4.48994e-05
4.40496e-05
4.40218e-05
4.41533e-05
4.42605e-05
4.43196e-05
4.43453e-05
4.43532e-05
4.4353e-05
4.43496e-05
4.4345e-05
4.43396e-05
4.43334e-05
4.43259e-05
4.43163e-05
4.43033e-05
4.42848e-05
4.42585e-05
4.42205e-05
4.41656e-05
4.40888e-05
4.39857e-05
4.38609e-05
4.37327e-05
4.36302e-05
4.35781e-05
4.35821e-05
4.36382e-05
4.37301e-05
4.38366e-05
4.39397e-05
4.40289e-05
4.41011e-05
4.41572e-05
4.42002e-05
4.42327e-05
4.42575e-05
4.42764e-05
4.4291e-05
4.43023e-05
4.43111e-05
4.43181e-05
4.43235e-05
4.43277e-05
4.43311e-05
4.43337e-05
4.43357e-05
4.43372e-05
4.43385e-05
4.43394e-05
4.43401e-05
4.43407e-05
4.43411e-05
4.43415e-05
4.43417e-05
4.43419e-05
4.43421e-05
4.43422e-05
4.43423e-05
4.43424e-05
4.43424e-05
4.43425e-05
4.43425e-05
4.43425e-05
4.43425e-05
4.43426e-05
4.43426e-05
4.43426e-05
4.43425e-05
4.4342e-05
4.43354e-05
4.42771e-05
8.68456e-05
5.86523e-05
4.9109e-05
4.71902e-05
4.70992e-05
4.73103e-05
4.74364e-05
4.74663e-05
4.74481e-05
4.74133e-05
4.73748e-05
4.73361e-05
4.72967e-05
4.72548e-05
4.72082e-05
4.71542e-05
4.709e-05
4.70127e-05
4.69193e-05
4.6807e-05
4.66745e-05
4.65216e-05
4.63512e-05
4.61703e-05
4.59903e-05
4.58267e-05
4.56972e-05
4.56186e-05
4.56005e-05
4.56431e-05
4.57397e-05
4.58783e-05
4.60431e-05
4.62181e-05
4.63906e-05
4.65516e-05
4.66956e-05
4.68205e-05
4.69258e-05
4.7013e-05
4.70839e-05
4.7141e-05
4.71863e-05
4.72221e-05
4.72501e-05
4.7272e-05
4.72889e-05
4.7302e-05
4.7312e-05
4.73198e-05
4.73257e-05
4.73303e-05
4.73338e-05
4.73365e-05
4.73385e-05
4.73401e-05
4.73413e-05
4.73422e-05
4.73429e-05
4.73435e-05
4.73439e-05
4.73442e-05
4.73444e-05
4.73446e-05
4.73447e-05
4.73448e-05
4.73449e-05
4.7345e-05
4.7345e-05
4.7345e-05
4.73451e-05
4.73451e-05
4.73445e-05
4.7337e-05
4.72724e-05
)
;

boundaryField
{
    ibCylinder
    {
        type            immersedBoundaryKqRWallFunction;
        patchType       immersedBoundary;
        setDeadValue    true;
        deadValue       0.00015;
        value           nonuniform List<scalar> 0();
    }
    in
    {
        type            fixedValue;
        value           uniform 0.00015;
    }
    out
    {
        type            inletOutlet;
        inletValue      uniform 0.00015;
        value           nonuniform List<scalar> 
25
(
4.75376e-05
4.43857e-05
4.36341e-05
4.35305e-05
4.35188e-05
4.35176e-05
4.35175e-05
4.35175e-05
4.35175e-05
4.35175e-05
4.35175e-05
4.35175e-05
4.35175e-05
4.35175e-05
4.35175e-05
4.35175e-05
4.35175e-05
4.35175e-05
4.35175e-05
4.35175e-05
4.35179e-05
4.35248e-05
4.36042e-05
4.42771e-05
4.72724e-05
)
;
    }
    top
    {
        type            zeroGradient;
    }
    bottom
    {
        type            zeroGradient;
    }
    frontAndBack
    {
        type            empty;
    }
}


// ************************************************************************* //
