/*--------------------------------*- C++ -*----------------------------------*\
| =========                 |                                                 |
| \\      /  F ield         | OpenFOAM: The Open Source CFD Toolbox           |
|  \\    /   O peration     | Version:  2206                                  |
|   \\  /    A nd           | Website:  www.openfoam.com                      |
|    \\/     M anipulation  |                                                 |
\*---------------------------------------------------------------------------*/
FoamFile
{
    version     2.0;
    format      ascii;
    arch        "LSB;label=32;scalar=64";
    class       volScalarField;
    location    "0.1";
    object      nut;
}
// * * * * * * * * * * * * * * * * * * * * * * * * * * * * * * * * * * * * * //

dimensions      [0 2 -1 0 0 0 0];

internalField   nonuniform List<scalar> 
1875
(
2.95429e-07
3.11586e-07
3.51513e-07
3.96584e-07
4.25796e-07
4.40121e-07
4.4599e-07
4.48067e-07
4.48662e-07
4.4873e-07
4.48627e-07
4.48472e-07
4.48296e-07
4.48102e-07
4.47884e-07
4.4763e-07
4.47328e-07
4.46961e-07
4.46517e-07
4.45982e-07
4.45348e-07
4.44615e-07
4.4379e-07
4.42902e-07
4.41995e-07
4.41145e-07
4.4045e-07
4.40017e-07
4.39898e-07
4.40085e-07
4.40543e-07
4.41205e-07
4.41989e-07
4.4282e-07
4.43644e-07
4.44423e-07
4.45133e-07
4.45759e-07
4.46296e-07
4.46748e-07
4.4712e-07
4.47422e-07
4.47665e-07
4.47858e-07
4.4801e-07
4.48128e-07
4.48221e-07
4.48293e-07
4.48349e-07
4.48391e-07
4.48424e-07
4.4845e-07
4.48469e-07
4.48484e-07
4.48496e-07
4.48504e-07
4.48511e-07
4.48516e-07
4.4852e-07
4.48523e-07
4.48526e-07
4.48527e-07
4.48529e-07
4.4853e-07
4.4853e-07
4.48531e-07
4.48531e-07
4.48532e-07
4.48532e-07
4.48532e-07
4.48533e-07
4.48533e-07
4.48537e-07
4.48553e-07
4.48605e-07
2.94412e-07
3.05222e-07
3.33343e-07
3.67328e-07
3.94615e-07
4.1149e-07
4.20323e-07
4.24476e-07
4.26291e-07
4.27041e-07
4.27337e-07
4.27449e-07
4.27489e-07
4.27503e-07
4.27508e-07
4.27509e-07
4.27508e-07
4.27503e-07
4.27489e-07
4.2746e-07
4.274e-07
4.27285e-07
4.27058e-07
4.2664e-07
4.25929e-07
4.24907e-07
4.23754e-07
4.22852e-07
4.22521e-07
4.22743e-07
4.23397e-07
4.24212e-07
4.24975e-07
4.25568e-07
4.25988e-07
4.2628e-07
4.26495e-07
4.26664e-07
4.26804e-07
4.26923e-07
4.27024e-07
4.27109e-07
4.2718e-07
4.27239e-07
4.27287e-07
4.27326e-07
4.27357e-07
4.27382e-07
4.27402e-07
4.27417e-07
4.27429e-07
4.27439e-07
4.27446e-07
4.27452e-07
4.27456e-07
4.27459e-07
4.27462e-07
4.27464e-07
4.27466e-07
4.27467e-07
4.27468e-07
4.27469e-07
4.27469e-07
4.2747e-07
4.2747e-07
4.2747e-07
4.2747e-07
4.27471e-07
4.27471e-07
4.27471e-07
4.27471e-07
4.27472e-07
4.27477e-07
4.27511e-07
4.27689e-07
2.9423e-07
3.04305e-07
3.30339e-07
3.61683e-07
3.87583e-07
4.04393e-07
4.13716e-07
4.18384e-07
4.20569e-07
4.21546e-07
4.21973e-07
4.22161e-07
4.22249e-07
4.22298e-07
4.22335e-07
4.22369e-07
4.22406e-07
4.2245e-07
4.22501e-07
4.2255e-07
4.22561e-07
4.22411e-07
4.21786e-07
4.20084e-07
4.16544e-07
4.10876e-07
4.04084e-07
3.98601e-07
3.96933e-07
3.99103e-07
4.03982e-07
4.09491e-07
4.14293e-07
4.17679e-07
4.19731e-07
4.2084e-07
4.21399e-07
4.21676e-07
4.21822e-07
4.21912e-07
4.21976e-07
4.22029e-07
4.22073e-07
4.2211e-07
4.22142e-07
4.22168e-07
4.2219e-07
4.22207e-07
4.22221e-07
4.22232e-07
4.22241e-07
4.22248e-07
4.22253e-07
4.22258e-07
4.22261e-07
4.22264e-07
4.22266e-07
4.22267e-07
4.22268e-07
4.22269e-07
4.2227e-07
4.22271e-07
4.22271e-07
4.22271e-07
4.22272e-07
4.22272e-07
4.22272e-07
4.22272e-07
4.22272e-07
4.22272e-07
4.22272e-07
4.22273e-07
4.22279e-07
4.2231e-07
4.22448e-07
2.94182e-07
3.04344e-07
3.30437e-07
3.61496e-07
3.86977e-07
4.03526e-07
4.1277e-07
4.17452e-07
4.19673e-07
4.20679e-07
4.21122e-07
4.21315e-07
4.21402e-07
4.21445e-07
4.21472e-07
4.21493e-07
4.21517e-07
4.21543e-07
4.21564e-07
4.21525e-07
4.21192e-07
4.19791e-07
4.15356e-07
4.0435e-07
3.83134e-07
3.51804e-07
3.17301e-07
2.90744e-07
2.83609e-07
2.96781e-07
3.22832e-07
3.51617e-07
3.77656e-07
3.96552e-07
4.08359e-07
4.14865e-07
4.18138e-07
4.19693e-07
4.20419e-07
4.20772e-07
4.20962e-07
4.2108e-07
4.21163e-07
4.21226e-07
4.21277e-07
4.21318e-07
4.21351e-07
4.21378e-07
4.21399e-07
4.21416e-07
4.21429e-07
4.21439e-07
4.21447e-07
4.21453e-07
4.21458e-07
4.21462e-07
4.21465e-07
4.21467e-07
4.21469e-07
4.21471e-07
4.21472e-07
4.21472e-07
4.21473e-07
4.21474e-07
4.21474e-07
4.21474e-07
4.21474e-07
4.21475e-07
4.21475e-07
4.21475e-07
4.21475e-07
4.21476e-07
4.21481e-07
4.21511e-07
4.21632e-07
2.94171e-07
3.04442e-07
3.30848e-07
3.62098e-07
3.8748e-07
4.03801e-07
4.12858e-07
4.17429e-07
4.19595e-07
4.20575e-07
4.21004e-07
4.21189e-07
4.21267e-07
4.21301e-07
4.21316e-07
4.21324e-07
4.21329e-07
4.21322e-07
4.21234e-07
4.20713e-07
4.18357e-07
4.09828e-07
3.85593e-07
3.33834e-07
2.55137e-07
1.71468e-07
1.0921e-07
7.40393e-08
6.65608e-08
8.58071e-08
1.28269e-07
1.86879e-07
2.57341e-07
3.20083e-07
3.65737e-07
3.93334e-07
4.07941e-07
4.15009e-07
4.1825e-07
4.19708e-07
4.20378e-07
4.20709e-07
4.20892e-07
4.21009e-07
4.21091e-07
4.21152e-07
4.212e-07
4.21237e-07
4.21266e-07
4.21289e-07
4.21307e-07
4.21321e-07
4.21331e-07
4.2134e-07
4.21346e-07
4.21351e-07
4.21355e-07
4.21358e-07
4.21361e-07
4.21363e-07
4.21364e-07
4.21365e-07
4.21366e-07
4.21367e-07
4.21367e-07
4.21368e-07
4.21368e-07
4.21368e-07
4.21368e-07
4.21368e-07
4.21369e-07
4.21369e-07
4.21375e-07
4.21404e-07
4.21521e-07
2.94168e-07
3.04502e-07
3.31129e-07
3.62572e-07
3.87951e-07
4.0414e-07
4.13056e-07
4.17528e-07
4.19635e-07
4.20583e-07
4.20994e-07
4.21167e-07
4.21236e-07
4.2126e-07
4.21265e-07
4.2126e-07
4.21239e-07
4.21136e-07
4.20559e-07
4.17657e-07
4.05628e-07
3.67244e-07
2.81522e-07
1.61994e-07
6.53195e-08
1.83685e-08
4.58895e-09
1.24793e-09
9.35125e-10
2.7242e-09
1.07007e-08
3.22263e-08
8.44704e-08
1.64854e-07
2.55415e-07
3.28985e-07
3.75308e-07
3.99861e-07
4.11568e-07
4.16826e-07
4.19129e-07
4.20145e-07
4.20617e-07
4.20857e-07
4.20996e-07
4.21085e-07
4.21149e-07
4.21196e-07
4.21232e-07
4.2126e-07
4.21281e-07
4.21298e-07
4.21311e-07
4.21321e-07
4.21329e-07
4.21335e-07
4.21339e-07
4.21343e-07
4.21346e-07
4.21348e-07
4.2135e-07
4.21351e-07
4.21352e-07
4.21353e-07
4.21353e-07
4.21354e-07
4.21354e-07
4.21354e-07
4.21354e-07
4.21355e-07
4.21355e-07
4.21356e-07
4.21361e-07
4.2139e-07
4.21506e-07
2.94166e-07
3.04532e-07
3.31289e-07
3.62868e-07
3.88268e-07
4.04387e-07
4.13215e-07
4.17619e-07
4.19682e-07
4.20604e-07
4.21e-07
4.21162e-07
4.21223e-07
4.21239e-07
4.21233e-07
4.2121e-07
4.21123e-07
4.20648e-07
4.18002e-07
4.05418e-07
3.59951e-07
2.53095e-07
1.16025e-07
2.88153e-08
3.4143e-09
2.01077e-10
1.40067e-11
1.50821e-12
1.16093e-12
8.89899e-12
1.34305e-10
1.16737e-09
9.52341e-09
4.03122e-08
1.0987e-07
2.08165e-07
2.99367e-07
3.60389e-07
3.93256e-07
4.08863e-07
4.15788e-07
4.18766e-07
4.20045e-07
4.20613e-07
4.20884e-07
4.21029e-07
4.21116e-07
4.21175e-07
4.21217e-07
4.21249e-07
4.21273e-07
4.21291e-07
4.21305e-07
4.21316e-07
4.21325e-07
4.21331e-07
4.21336e-07
4.2134e-07
4.21343e-07
4.21346e-07
4.21347e-07
4.21349e-07
4.2135e-07
4.21351e-07
4.21351e-07
4.21352e-07
4.21352e-07
4.21352e-07
4.21353e-07
4.21353e-07
4.21353e-07
4.21354e-07
4.21359e-07
4.21388e-07
4.21504e-07
2.94165e-07
3.04546e-07
3.31379e-07
3.63047e-07
3.88472e-07
4.04555e-07
4.13329e-07
4.17688e-07
4.19721e-07
4.20625e-07
4.21009e-07
4.21163e-07
4.21216e-07
4.21224e-07
4.21208e-07
4.21148e-07
4.20853e-07
4.19071e-07
4.09327e-07
3.68148e-07
2.58342e-07
1.12434e-07
2.43675e-08
1.16055e-09
2.47947e-11
1e-06
1e-06
1e-06
1e-06
1e-06
1e-06
8.2086e-12
4.31635e-10
5.79128e-09
3.06443e-08
9.50669e-08
1.9356e-07
2.89686e-07
3.55523e-07
3.91216e-07
4.08133e-07
4.15592e-07
4.18767e-07
4.20107e-07
4.20686e-07
4.20951e-07
4.21085e-07
4.21162e-07
4.21212e-07
4.21246e-07
4.21271e-07
4.2129e-07
4.21305e-07
4.21316e-07
4.21324e-07
4.21331e-07
4.21336e-07
4.2134e-07
4.21343e-07
4.21345e-07
4.21347e-07
4.21349e-07
4.2135e-07
4.2135e-07
4.21351e-07
4.21352e-07
4.21352e-07
4.21352e-07
4.21352e-07
4.21353e-07
4.21353e-07
4.21354e-07
4.21359e-07
4.21388e-07
4.21504e-07
2.94164e-07
3.04552e-07
3.3143e-07
3.63157e-07
3.88604e-07
4.04669e-07
4.13411e-07
4.17742e-07
4.19755e-07
4.20645e-07
4.21021e-07
4.21168e-07
4.21215e-07
4.21217e-07
4.21184e-07
4.2104e-07
4.20161e-07
4.14703e-07
3.86951e-07
2.93624e-07
1.40725e-07
3.42914e-08
2.86971e-09
1.99547e-11
1e-06
1e-06
1e-06
1e-06
1e-06
1e-06
1e-06
1e-06
2.27506e-12
5.4296e-10
6.34816e-09
3.5025e-08
1.05661e-07
2.07416e-07
3.00928e-07
3.62214e-07
3.946e-07
4.09739e-07
4.16358e-07
4.19153e-07
4.20323e-07
4.2082e-07
4.21042e-07
4.21151e-07
4.21212e-07
4.21249e-07
4.21275e-07
4.21294e-07
4.21308e-07
4.21318e-07
4.21326e-07
4.21332e-07
4.21337e-07
4.21341e-07
4.21344e-07
4.21346e-07
4.21347e-07
4.21349e-07
4.2135e-07
4.21351e-07
4.21351e-07
4.21352e-07
4.21352e-07
4.21352e-07
4.21352e-07
4.21353e-07
4.21353e-07
4.21354e-07
4.21359e-07
4.21388e-07
4.21504e-07
2.94163e-07
3.04554e-07
3.31459e-07
3.63226e-07
3.88691e-07
4.04747e-07
4.1347e-07
4.17783e-07
4.19783e-07
4.20665e-07
4.21034e-07
4.21177e-07
4.2122e-07
4.21216e-07
4.21158e-07
4.20835e-07
4.18674e-07
4.05604e-07
3.47145e-07
2.04789e-07
6.53304e-08
8.34393e-09
1.46757e-10
1e-06
1e-06
1e-06
1e-06
1e-06
1e-06
1e-06
1e-06
1e-06
1e-06
1.37186e-11
5.17531e-10
7.20425e-09
4.03627e-08
1.20665e-07
2.2867e-07
3.18901e-07
3.73206e-07
4.00228e-07
4.12384e-07
4.17567e-07
4.19717e-07
4.20603e-07
4.20974e-07
4.21137e-07
4.21216e-07
4.21258e-07
4.21284e-07
4.21301e-07
4.21314e-07
4.21323e-07
4.2133e-07
4.21335e-07
4.21339e-07
4.21343e-07
4.21345e-07
4.21347e-07
4.21348e-07
4.21349e-07
4.2135e-07
4.21351e-07
4.21351e-07
4.21352e-07
4.21352e-07
4.21352e-07
4.21353e-07
4.21353e-07
4.21353e-07
4.21354e-07
4.21359e-07
4.21388e-07
4.21504e-07
2.94162e-07
3.04554e-07
3.31476e-07
3.63268e-07
3.88747e-07
4.048e-07
4.13512e-07
4.17814e-07
4.19806e-07
4.20682e-07
4.21048e-07
4.21188e-07
4.21229e-07
4.21219e-07
4.21122e-07
4.20489e-07
4.16204e-07
3.91946e-07
3.00703e-07
1.4125e-07
3.28785e-08
2.92942e-09
2.41839e-10
1e-06
1e-06
1e-06
1e-06
1e-06
1e-06
1e-06
1e-06
1e-06
1e-06
4.10002e-13
3.44235e-10
5.4105e-09
3.01297e-08
9.25452e-08
1.88786e-07
2.84803e-07
3.52236e-07
3.89582e-07
4.07548e-07
4.15525e-07
4.18907e-07
4.20305e-07
4.20878e-07
4.21117e-07
4.2122e-07
4.21269e-07
4.21296e-07
4.21311e-07
4.21322e-07
4.21329e-07
4.21335e-07
4.21339e-07
4.21342e-07
4.21345e-07
4.21347e-07
4.21348e-07
4.21349e-07
4.2135e-07
4.21351e-07
4.21351e-07
4.21352e-07
4.21352e-07
4.21352e-07
4.21353e-07
4.21353e-07
4.21353e-07
4.21353e-07
4.21354e-07
4.21359e-07
4.21388e-07
4.21504e-07
2.94161e-07
3.04553e-07
3.31483e-07
3.63291e-07
3.88779e-07
4.04831e-07
4.13537e-07
4.17833e-07
4.19819e-07
4.20692e-07
4.21056e-07
4.21195e-07
4.21234e-07
4.21217e-07
4.21058e-07
4.19919e-07
4.12201e-07
3.7178e-07
2.49323e-07
9.92087e-08
1.70619e-08
9.17174e-10
1e-06
1e-06
1e-06
1e-06
1e-06
1e-06
1e-06
1e-06
1e-06
1e-06
1e-06
1e-06
6.57477e-11
2.17069e-09
1.69437e-08
6.28965e-08
1.48543e-07
2.49779e-07
3.30278e-07
3.78327e-07
4.02405e-07
4.13339e-07
4.18031e-07
4.19978e-07
4.20771e-07
4.21092e-07
4.21225e-07
4.21282e-07
4.21308e-07
4.21322e-07
4.21331e-07
4.21336e-07
4.2134e-07
4.21343e-07
4.21346e-07
4.21347e-07
4.21349e-07
4.2135e-07
4.21351e-07
4.21351e-07
4.21352e-07
4.21352e-07
4.21352e-07
4.21352e-07
4.21353e-07
4.21353e-07
4.21353e-07
4.21353e-07
4.21353e-07
4.21354e-07
4.21359e-07
4.21388e-07
4.21504e-07
2.9416e-07
3.04551e-07
3.31488e-07
3.63306e-07
3.88795e-07
4.0484e-07
4.13536e-07
4.17824e-07
4.19807e-07
4.20678e-07
4.21041e-07
4.21179e-07
4.21217e-07
4.21192e-07
4.20966e-07
4.19242e-07
4.07222e-07
3.4652e-07
1.9708e-07
7.4736e-08
1.23058e-08
4.67268e-10
1e-06
1e-06
1e-06
1e-06
1e-06
1e-06
1e-06
1e-06
1e-06
1e-06
1e-06
1e-06
2.50724e-11
1.34949e-09
1.26971e-08
5.13173e-08
1.29419e-07
2.30109e-07
3.1646e-07
3.70755e-07
3.98808e-07
4.11769e-07
4.17388e-07
4.19732e-07
4.20686e-07
4.2107e-07
4.21225e-07
4.21289e-07
4.21316e-07
4.2133e-07
4.21337e-07
4.21341e-07
4.21344e-07
4.21346e-07
4.21348e-07
4.21349e-07
4.2135e-07
4.21351e-07
4.21351e-07
4.21352e-07
4.21352e-07
4.21352e-07
4.21353e-07
4.21353e-07
4.21353e-07
4.21353e-07
4.21353e-07
4.21353e-07
4.21353e-07
4.21354e-07
4.21359e-07
4.21388e-07
4.21504e-07
2.9416e-07
3.04552e-07
3.31495e-07
3.63317e-07
3.88796e-07
4.04823e-07
4.13504e-07
4.17784e-07
4.19763e-07
4.20633e-07
4.20995e-07
4.21133e-07
4.21169e-07
4.21145e-07
4.20969e-07
4.19726e-07
4.11215e-07
3.66889e-07
2.3969e-07
9.79201e-08
1.784e-08
8.26988e-10
1e-06
1e-06
1e-06
1e-06
1e-06
1e-06
1e-06
1e-06
1e-06
1e-06
1e-06
1e-06
6.2596e-11
2.10691e-09
1.66606e-08
6.15516e-08
1.44714e-07
2.44176e-07
3.25286e-07
3.7507e-07
4.00635e-07
4.12482e-07
4.17654e-07
4.19829e-07
4.20723e-07
4.21086e-07
4.21232e-07
4.21293e-07
4.21319e-07
4.21332e-07
4.21339e-07
4.21342e-07
4.21345e-07
4.21347e-07
4.21348e-07
4.2135e-07
4.2135e-07
4.21351e-07
4.21352e-07
4.21352e-07
4.21352e-07
4.21352e-07
4.21353e-07
4.21353e-07
4.21353e-07
4.21353e-07
4.21353e-07
4.21353e-07
4.21353e-07
4.21354e-07
4.21359e-07
4.21388e-07
4.21504e-07
2.94161e-07
3.04554e-07
3.315e-07
3.63315e-07
3.88776e-07
4.04782e-07
4.13449e-07
4.17722e-07
4.197e-07
4.20572e-07
4.20936e-07
4.21075e-07
4.2111e-07
4.21088e-07
4.20968e-07
4.20253e-07
4.15474e-07
3.8897e-07
2.9488e-07
1.3946e-07
3.40716e-08
2.98915e-09
2.40704e-10
1e-06
1e-06
1e-06
1e-06
1e-06
1e-06
1e-06
1e-06
1e-06
1e-06
3.79452e-13
3.26588e-10
5.19221e-09
2.95525e-08
9.00674e-08
1.82474e-07
2.76493e-07
3.45267e-07
3.85146e-07
4.05164e-07
4.14388e-07
4.18424e-07
4.20131e-07
4.20839e-07
4.21129e-07
4.21248e-07
4.21299e-07
4.21321e-07
4.21332e-07
4.21339e-07
4.21342e-07
4.21345e-07
4.21347e-07
4.21348e-07
4.2135e-07
4.2135e-07
4.21351e-07
4.21351e-07
4.21352e-07
4.21352e-07
4.21352e-07
4.21353e-07
4.21353e-07
4.21353e-07
4.21353e-07
4.21353e-07
4.21353e-07
4.21353e-07
4.21354e-07
4.21359e-07
4.21388e-07
4.21504e-07
2.94161e-07
3.04555e-07
3.31497e-07
3.63295e-07
3.88733e-07
4.04721e-07
4.13379e-07
4.17651e-07
4.19633e-07
4.2051e-07
4.20879e-07
4.2102e-07
4.21057e-07
4.21039e-07
4.20955e-07
4.20564e-07
4.18098e-07
4.03593e-07
3.42165e-07
2.01501e-07
6.44797e-08
9.2126e-09
1.53394e-10
1e-06
1e-06
1e-06
1e-06
1e-06
1e-06
1e-06
1e-06
1e-06
1e-06
1.28366e-11
4.88269e-10
6.84472e-09
3.82473e-08
1.14112e-07
2.1763e-07
3.07716e-07
3.65154e-07
3.95536e-07
4.10007e-07
4.16498e-07
4.19303e-07
4.20486e-07
4.20979e-07
4.21183e-07
4.21269e-07
4.21306e-07
4.21324e-07
4.21333e-07
4.21339e-07
4.21343e-07
4.21345e-07
4.21347e-07
4.21348e-07
4.2135e-07
4.2135e-07
4.21351e-07
4.21351e-07
4.21352e-07
4.21352e-07
4.21352e-07
4.21353e-07
4.21353e-07
4.21353e-07
4.21353e-07
4.21353e-07
4.21353e-07
4.21353e-07
4.21354e-07
4.21359e-07
4.21388e-07
4.21504e-07
2.94162e-07
3.04554e-07
3.31482e-07
3.63252e-07
3.88661e-07
4.04635e-07
4.13293e-07
4.17573e-07
4.19564e-07
4.20451e-07
4.20829e-07
4.20977e-07
4.21019e-07
4.21006e-07
4.20946e-07
4.20747e-07
4.19685e-07
4.13366e-07
3.82923e-07
2.88173e-07
1.3985e-07
3.61095e-08
3.0293e-09
1.96662e-11
1e-06
1e-06
1e-06
1e-06
1e-06
1e-06
1e-06
1e-06
2.08191e-12
5.15268e-10
6.033e-09
3.05898e-08
9.15118e-08
1.85235e-07
2.79505e-07
3.47171e-07
3.85924e-07
4.05341e-07
4.14354e-07
4.1835e-07
4.2007e-07
4.20798e-07
4.21104e-07
4.21233e-07
4.21289e-07
4.21315e-07
4.21328e-07
4.21335e-07
4.2134e-07
4.21343e-07
4.21346e-07
4.21347e-07
4.21349e-07
4.2135e-07
4.2135e-07
4.21351e-07
4.21352e-07
4.21352e-07
4.21352e-07
4.21352e-07
4.21353e-07
4.21353e-07
4.21353e-07
4.21353e-07
4.21353e-07
4.21353e-07
4.21353e-07
4.21354e-07
4.21359e-07
4.21388e-07
4.21504e-07
2.94162e-07
3.0455e-07
3.31449e-07
3.63172e-07
3.88548e-07
4.04515e-07
4.13186e-07
4.17484e-07
4.19495e-07
4.20397e-07
4.20788e-07
4.20947e-07
4.20998e-07
4.20993e-07
4.20949e-07
4.20844e-07
4.20446e-07
4.1826e-07
4.06898e-07
3.62352e-07
2.52837e-07
1.10044e-07
2.57397e-08
1.22372e-09
2.50015e-11
1e-06
1e-06
1e-06
1e-06
1e-06
1e-06
7.50499e-12
4.12808e-10
5.47994e-09
2.87192e-08
8.54998e-08
1.73724e-07
2.66436e-07
3.36968e-07
3.79605e-07
4.01925e-07
4.1265e-07
4.17542e-07
4.197e-07
4.20632e-07
4.21029e-07
4.21199e-07
4.21273e-07
4.21306e-07
4.21323e-07
4.21332e-07
4.21338e-07
4.21342e-07
4.21344e-07
4.21346e-07
4.21348e-07
4.21349e-07
4.2135e-07
4.21351e-07
4.21351e-07
4.21352e-07
4.21352e-07
4.21352e-07
4.21353e-07
4.21353e-07
4.21353e-07
4.21353e-07
4.21353e-07
4.21353e-07
4.21353e-07
4.21353e-07
4.21354e-07
4.21359e-07
4.21388e-07
4.21504e-07
2.94163e-07
3.04537e-07
3.31383e-07
3.63031e-07
3.88368e-07
4.04344e-07
4.13048e-07
4.17383e-07
4.19425e-07
4.20351e-07
4.2076e-07
4.20933e-07
4.20995e-07
4.21001e-07
4.20972e-07
4.20909e-07
4.20755e-07
4.20114e-07
4.16839e-07
4.02295e-07
3.54019e-07
2.48476e-07
1.19567e-07
3.07988e-08
3.64652e-09
2.03005e-10
1.43385e-11
1.5026e-12
1.08302e-12
8.25426e-12
1.28465e-10
1.12651e-09
9.08444e-09
3.7513e-08
9.83176e-08
1.85141e-07
2.72566e-07
3.38707e-07
3.79405e-07
4.01301e-07
4.12138e-07
4.17223e-07
4.19526e-07
4.20544e-07
4.20987e-07
4.21179e-07
4.21264e-07
4.21303e-07
4.21321e-07
4.21331e-07
4.21338e-07
4.21342e-07
4.21344e-07
4.21346e-07
4.21348e-07
4.21349e-07
4.2135e-07
4.21351e-07
4.21352e-07
4.21352e-07
4.21352e-07
4.21353e-07
4.21353e-07
4.21353e-07
4.21353e-07
4.21353e-07
4.21353e-07
4.21353e-07
4.21353e-07
4.21353e-07
4.21353e-07
4.21354e-07
4.21359e-07
4.21388e-07
4.21505e-07
2.94164e-07
3.04509e-07
3.31255e-07
3.62786e-07
3.88082e-07
4.04097e-07
4.12869e-07
4.17268e-07
4.19357e-07
4.20317e-07
4.20748e-07
4.20937e-07
4.21013e-07
4.21032e-07
4.21018e-07
4.20979e-07
4.20907e-07
4.20721e-07
4.19941e-07
4.1641e-07
4.02896e-07
3.62992e-07
2.79407e-07
1.64504e-07
6.91337e-08
1.97614e-08
4.81668e-09
1.29017e-09
9.36154e-10
2.66325e-09
1.03175e-08
3.06201e-08
7.42521e-08
1.43603e-07
2.25702e-07
2.99779e-07
3.53265e-07
3.86048e-07
4.0402e-07
4.13165e-07
4.17588e-07
4.1965e-07
4.20586e-07
4.21004e-07
4.21189e-07
4.21271e-07
4.21308e-07
4.21326e-07
4.21336e-07
4.21341e-07
4.21345e-07
4.21347e-07
4.21349e-07
4.21351e-07
4.21352e-07
4.21352e-07
4.21353e-07
4.21354e-07
4.21354e-07
4.21354e-07
4.21354e-07
4.21355e-07
4.21355e-07
4.21355e-07
4.21355e-07
4.21355e-07
4.21355e-07
4.21355e-07
4.21355e-07
4.21355e-07
4.21355e-07
4.21356e-07
4.21361e-07
4.2139e-07
4.21506e-07
2.94165e-07
3.04454e-07
3.31021e-07
3.62379e-07
3.8765e-07
4.03759e-07
4.12654e-07
4.17152e-07
4.19308e-07
4.2031e-07
4.20768e-07
4.20974e-07
4.21065e-07
4.21097e-07
4.21099e-07
4.2108e-07
4.21044e-07
4.20981e-07
4.20807e-07
4.20115e-07
4.17362e-07
4.08166e-07
3.83727e-07
3.33716e-07
2.58339e-07
1.76288e-07
1.13452e-07
7.70552e-08
6.72636e-08
8.17559e-08
1.17661e-07
1.69518e-07
2.31666e-07
2.92473e-07
3.41836e-07
3.76124e-07
3.97239e-07
4.0913e-07
4.154e-07
4.18545e-07
4.20063e-07
4.20773e-07
4.21098e-07
4.21244e-07
4.21309e-07
4.21338e-07
4.21351e-07
4.21358e-07
4.21361e-07
4.21363e-07
4.21365e-07
4.21366e-07
4.21367e-07
4.21367e-07
4.21368e-07
4.21368e-07
4.21368e-07
4.21368e-07
4.21369e-07
4.21369e-07
4.21369e-07
4.21369e-07
4.21369e-07
4.21369e-07
4.21369e-07
4.21369e-07
4.21369e-07
4.21369e-07
4.21369e-07
4.21369e-07
4.21369e-07
4.2137e-07
4.21375e-07
4.21404e-07
4.21521e-07
2.94173e-07
3.04368e-07
3.30676e-07
3.61848e-07
3.87167e-07
4.03462e-07
4.12536e-07
4.1716e-07
4.19389e-07
4.20431e-07
4.20911e-07
4.21133e-07
4.21235e-07
4.21282e-07
4.213e-07
4.21302e-07
4.21295e-07
4.2128e-07
4.21249e-07
4.2114e-07
4.20702e-07
4.19139e-07
4.14558e-07
4.03714e-07
3.83346e-07
3.53467e-07
3.20325e-07
2.93558e-07
2.82447e-07
2.88628e-07
3.09002e-07
3.35366e-07
3.61453e-07
3.83036e-07
3.98612e-07
4.08709e-07
4.14721e-07
4.18068e-07
4.19829e-07
4.20715e-07
4.21141e-07
4.21339e-07
4.21426e-07
4.21463e-07
4.21477e-07
4.21481e-07
4.21482e-07
4.21482e-07
4.21481e-07
4.2148e-07
4.2148e-07
4.21479e-07
4.21479e-07
4.21479e-07
4.21479e-07
4.21479e-07
4.21478e-07
4.21478e-07
4.21478e-07
4.21478e-07
4.21478e-07
4.21478e-07
4.21478e-07
4.21478e-07
4.21478e-07
4.21478e-07
4.21478e-07
4.21478e-07
4.21478e-07
4.21478e-07
4.21478e-07
4.21479e-07
4.21484e-07
4.21513e-07
4.21631e-07
2.94216e-07
3.0435e-07
3.30632e-07
3.62036e-07
3.87688e-07
4.04224e-07
4.13414e-07
4.18076e-07
4.20311e-07
4.2135e-07
4.21827e-07
4.22048e-07
4.22156e-07
4.22211e-07
4.22244e-07
4.22266e-07
4.22284e-07
4.22302e-07
4.22319e-07
4.22329e-07
4.22295e-07
4.22095e-07
4.21423e-07
4.1971e-07
4.16247e-07
4.10766e-07
4.04112e-07
3.98229e-07
3.95116e-07
3.95285e-07
3.98751e-07
4.03986e-07
4.09406e-07
4.13979e-07
4.17325e-07
4.19528e-07
4.20858e-07
4.21604e-07
4.21997e-07
4.22191e-07
4.22279e-07
4.22315e-07
4.22327e-07
4.22328e-07
4.22325e-07
4.22321e-07
4.22318e-07
4.22314e-07
4.22312e-07
4.2231e-07
4.22309e-07
4.22307e-07
4.22307e-07
4.22306e-07
4.22305e-07
4.22305e-07
4.22305e-07
4.22305e-07
4.22304e-07
4.22304e-07
4.22304e-07
4.22304e-07
4.22304e-07
4.22304e-07
4.22304e-07
4.22304e-07
4.22304e-07
4.22304e-07
4.22304e-07
4.22304e-07
4.22304e-07
4.22305e-07
4.2231e-07
4.22341e-07
4.22465e-07
2.94397e-07
3.05268e-07
3.33526e-07
3.674e-07
3.94415e-07
4.11179e-07
4.2008e-07
4.24374e-07
4.26323e-07
4.2717e-07
4.27527e-07
4.27674e-07
4.27732e-07
4.27752e-07
4.27754e-07
4.27748e-07
4.27734e-07
4.27711e-07
4.27677e-07
4.27623e-07
4.27538e-07
4.27396e-07
4.27147e-07
4.26715e-07
4.26001e-07
4.24981e-07
4.23799e-07
4.22757e-07
4.22139e-07
4.22035e-07
4.22506e-07
4.23371e-07
4.24366e-07
4.25283e-07
4.26019e-07
4.26558e-07
4.26931e-07
4.27183e-07
4.27353e-07
4.27468e-07
4.27548e-07
4.27605e-07
4.27648e-07
4.27681e-07
4.27706e-07
4.27725e-07
4.27741e-07
4.27753e-07
4.27762e-07
4.2777e-07
4.27775e-07
4.2778e-07
4.27783e-07
4.27786e-07
4.27788e-07
4.2779e-07
4.27791e-07
4.27792e-07
4.27793e-07
4.27793e-07
4.27794e-07
4.27794e-07
4.27794e-07
4.27794e-07
4.27795e-07
4.27795e-07
4.27795e-07
4.27795e-07
4.27795e-07
4.27795e-07
4.27795e-07
4.27796e-07
4.27803e-07
4.27843e-07
4.27996e-07
2.9551e-07
3.11586e-07
3.51057e-07
3.95969e-07
4.25601e-07
4.40521e-07
4.46864e-07
4.49239e-07
4.49996e-07
4.50143e-07
4.50074e-07
4.49928e-07
4.49749e-07
4.49544e-07
4.49309e-07
4.49032e-07
4.48702e-07
4.48301e-07
4.47817e-07
4.47236e-07
4.46551e-07
4.45763e-07
4.44884e-07
4.43946e-07
4.42997e-07
4.42111e-07
4.41381e-07
4.40902e-07
4.40734e-07
4.40898e-07
4.41388e-07
4.42138e-07
4.43047e-07
4.44011e-07
4.44954e-07
4.45826e-07
4.466e-07
4.47266e-07
4.47826e-07
4.48287e-07
4.48663e-07
4.48965e-07
4.49205e-07
4.49394e-07
4.49543e-07
4.49658e-07
4.49748e-07
4.49818e-07
4.49871e-07
4.49913e-07
4.49944e-07
4.49969e-07
4.49987e-07
4.50002e-07
4.50012e-07
4.50021e-07
4.50027e-07
4.50032e-07
4.50036e-07
4.50039e-07
4.50041e-07
4.50043e-07
4.50044e-07
4.50045e-07
4.50046e-07
4.50046e-07
4.50047e-07
4.50047e-07
4.50047e-07
4.50047e-07
4.50048e-07
4.5005e-07
4.50063e-07
4.50132e-07
4.50409e-07
)
;

boundaryField
{
    ibCylinder
    {
        type            immersedBoundaryNutWallFunction;
        patchType       immersedBoundary;
        blending        stepwise;
        value           nonuniform List<scalar> 0();
    }
    in
    {
        type            zeroGradient;
    }
    out
    {
        type            zeroGradient;
    }
    top
    {
        type            zeroGradient;
    }
    bottom
    {
        type            zeroGradient;
    }
    frontAndBack
    {
        type            empty;
    }
}


// ************************************************************************* //
