/*--------------------------------*- C++ -*----------------------------------*\
| =========                 |                                                 |
| \\      /  F ield         | OpenFOAM: The Open Source CFD Toolbox           |
|  \\    /   O peration     | Version:  2206                                  |
|   \\  /    A nd           | Website:  www.openfoam.com                      |
|    \\/     M anipulation  |                                                 |
\*---------------------------------------------------------------------------*/
FoamFile
{
    version     2.0;
    format      ascii;
    arch        "LSB;label=32;scalar=64";
    class       volScalarField;
    location    "0.1";
    object      omega;
}
// * * * * * * * * * * * * * * * * * * * * * * * * * * * * * * * * * * * * * //

dimensions      [0 0 -1 0 0 0 0];

internalField   nonuniform List<scalar> 
1875
(
293.854
188.157
139.894
119.395
111.107
108.001
106.855
106.411
106.216
106.113
106.046
105.992
105.942
105.891
105.835
105.77
105.694
105.601
105.49
105.356
105.198
105.017
104.817
104.607
104.406
104.231
104.103
104.035
104.037
104.11
104.244
104.421
104.621
104.826
105.022
105.2
105.355
105.487
105.595
105.683
105.754
105.809
105.853
105.887
105.913
105.934
105.95
105.962
105.971
105.978
105.983
105.987
105.991
105.993
105.995
105.996
105.997
105.998
105.999
105.999
106
106
106
106
106
106
106
106.001
106.001
106.001
106.001
106
106
105.993
105.968
293.624
192.86
145.034
122.106
111.6
107.061
105.203
104.471
104.186
104.071
104.02
103.993
103.973
103.956
103.939
103.92
103.897
103.869
103.833
103.788
103.73
103.658
103.574
103.487
103.414
103.375
103.376
103.399
103.422
103.452
103.494
103.554
103.626
103.706
103.781
103.844
103.892
103.926
103.948
103.962
103.97
103.975
103.977
103.978
103.978
103.978
103.977
103.977
103.977
103.976
103.976
103.976
103.976
103.976
103.975
103.975
103.975
103.975
103.975
103.975
103.975
103.975
103.975
103.975
103.975
103.975
103.975
103.975
103.975
103.975
103.975
103.975
103.972
103.951
103.78
293.583
193.004
145.837
122.977
112.13
107.188
105.031
104.124
103.752
103.6
103.537
103.508
103.492
103.482
103.474
103.465
103.455
103.443
103.427
103.406
103.38
103.355
103.357
103.45
103.732
104.287
105.064
105.781
106.029
105.773
105.223
104.671
104.241
103.98
103.846
103.781
103.744
103.714
103.685
103.656
103.627
103.601
103.578
103.558
103.541
103.528
103.517
103.509
103.502
103.496
103.492
103.489
103.486
103.484
103.483
103.482
103.481
103.48
103.48
103.479
103.479
103.479
103.478
103.478
103.478
103.478
103.478
103.478
103.478
103.478
103.478
103.478
103.475
103.453
103.289
293.521
192.426
145.367
122.747
112.056
107.173
105.023
104.106
103.724
103.565
103.498
103.469
103.455
103.447
103.443
103.439
103.435
103.431
103.425
103.42
103.434
103.536
103.94
105.115
107.771
112.526
119.102
125.602
127.759
124.32
118.379
113.04
108.971
106.481
105.123
104.446
104.114
103.94
103.833
103.755
103.693
103.642
103.599
103.564
103.535
103.512
103.494
103.479
103.468
103.459
103.452
103.446
103.442
103.439
103.436
103.435
103.433
103.432
103.431
103.43
103.43
103.429
103.429
103.429
103.429
103.429
103.428
103.428
103.428
103.428
103.428
103.428
103.425
103.404
103.243
293.488
192.07
144.901
122.381
111.836
107.061
104.972
104.084
103.715
103.564
103.501
103.475
103.465
103.461
103.461
103.463
103.466
103.471
103.482
103.528
103.739
104.596
107.459
115.206
132.166
163.173
208.156
261.858
283.929
247.179
196.861
159.927
133.565
118.718
110.854
107.047
105.303
104.512
104.137
103.936
103.813
103.727
103.661
103.611
103.57
103.539
103.514
103.494
103.479
103.467
103.458
103.451
103.445
103.441
103.437
103.435
103.433
103.431
103.43
103.429
103.429
103.428
103.428
103.427
103.427
103.427
103.427
103.427
103.427
103.426
103.426
103.426
103.424
103.402
103.242
293.472
191.883
144.612
122.119
111.655
106.954
104.915
104.055
103.702
103.56
103.503
103.481
103.475
103.476
103.481
103.489
103.501
103.523
103.585
103.862
105.1
109.838
124.7
163.444
251.39
447.149
779.838
1345.87
1633.98
1131.98
649.809
402.007
243.697
170.35
134.043
117.086
109.535
106.284
104.895
104.282
103.987
103.825
103.724
103.654
103.601
103.562
103.531
103.507
103.489
103.475
103.464
103.455
103.449
103.444
103.44
103.437
103.434
103.433
103.431
103.43
103.429
103.429
103.428
103.428
103.428
103.427
103.427
103.427
103.427
103.427
103.427
103.427
103.424
103.403
103.243
293.463
191.783
144.445
121.955
111.532
106.875
104.868
104.029
103.688
103.553
103.502
103.485
103.482
103.488
103.498
103.514
103.539
103.6
103.861
105.152
110.746
130.26
186.657
352.945
898.241
3120.67
8405.81
20881.6
23760.4
10326.4
3488.4
1638.82
697.674
359.384
213.679
150.52
123.331
111.851
107.109
105.163
104.347
103.981
103.798
103.693
103.625
103.577
103.542
103.515
103.495
103.479
103.467
103.458
103.451
103.445
103.441
103.438
103.435
103.433
103.432
103.431
103.43
103.429
103.429
103.428
103.428
103.428
103.428
103.427
103.427
103.427
103.427
103.427
103.424
103.403
103.243
293.458
191.729
144.347
121.852
111.45
106.818
104.831
104.007
103.675
103.546
103.499
103.486
103.487
103.497
103.512
103.536
103.584
103.77
104.753
109.601
128.451
186.258
366.731
1556.56
10650.9
500
500
500
500
500
500
13606.5
2233.09
822.7
402.374
228.849
156.3
125.453
112.569
107.302
105.17
104.295
103.918
103.74
103.644
103.585
103.546
103.517
103.496
103.48
103.468
103.458
103.451
103.445
103.441
103.438
103.435
103.433
103.432
103.431
103.43
103.429
103.429
103.428
103.428
103.428
103.428
103.427
103.427
103.427
103.427
103.427
103.424
103.403
103.243
293.455
191.697
144.285
121.784
111.393
106.777
104.803
103.988
103.662
103.538
103.494
103.484
103.489
103.502
103.522
103.556
103.66
104.206
107.257
121.066
167.302
308.542
921.757
12925
500
500
500
500
500
500
500
500
24177.6
1867.16
784.101
370.441
214.092
149.597
122.507
111.282
106.716
104.876
104.127
103.81
103.664
103.588
103.543
103.513
103.492
103.477
103.465
103.456
103.449
103.444
103.44
103.437
103.435
103.433
103.432
103.43
103.43
103.429
103.429
103.428
103.428
103.428
103.427
103.427
103.427
103.427
103.427
103.427
103.424
103.403
103.243
293.453
191.677
144.245
121.738
111.352
106.745
104.78
103.971
103.65
103.529
103.488
103.48
103.487
103.502
103.526
103.578
103.802
105.151
112.422
141.285
232.087
593.618
5057.39
500
500
500
500
500
500
500
500
500
500
9608.47
2561.83
872.12
376.293
207
143.715
119.208
109.656
105.943
104.499
103.928
103.693
103.588
103.535
103.504
103.484
103.47
103.46
103.452
103.446
103.442
103.438
103.436
103.434
103.432
103.431
103.43
103.429
103.429
103.428
103.428
103.428
103.428
103.427
103.427
103.427
103.427
103.427
103.427
103.424
103.403
103.243
293.452
191.664
144.218
121.706
111.322
106.721
104.761
103.956
103.638
103.519
103.481
103.474
103.482
103.498
103.526
103.606
104.04
106.692
119.803
165.533
306.094
887.841
19529.9
500
500
500
500
500
500
500
500
500
500
62844
1890.58
730.178
371.121
222.381
155.194
125.23
112.372
107.054
104.914
104.065
103.725
103.585
103.522
103.49
103.472
103.46
103.452
103.446
103.442
103.438
103.436
103.434
103.432
103.431
103.43
103.429
103.429
103.428
103.428
103.428
103.428
103.427
103.427
103.427
103.427
103.427
103.427
103.427
103.424
103.403
103.243
293.451
191.655
144.2
121.685
111.303
106.705
104.748
103.946
103.63
103.513
103.475
103.469
103.477
103.493
103.527
103.656
104.464
109.265
129.926
189.82
408.505
2242.63
500
500
500
500
500
500
500
500
500
500
500
500
3402.22
979.13
463.903
266.604
175.522
133.94
115.883
108.393
105.391
104.215
103.758
103.58
103.507
103.475
103.459
103.45
103.444
103.44
103.437
103.434
103.433
103.431
103.43
103.429
103.429
103.428
103.428
103.428
103.428
103.427
103.427
103.427
103.427
103.427
103.427
103.427
103.427
103.427
103.424
103.403
103.243
293.451
191.651
144.194
121.681
111.304
106.711
104.757
103.956
103.641
103.523
103.485
103.479
103.487
103.505
103.547
103.746
105.122
113.405
145.011
205.93
440.046
2610.31
500
500
500
500
500
500
500
500
500
500
500
500
4198.05
1045.82
491.929
286.103
186.731
139.401
118.264
109.348
105.745
104.332
103.788
103.579
103.498
103.465
103.45
103.443
103.438
103.435
103.433
103.432
103.431
103.43
103.429
103.429
103.428
103.428
103.428
103.428
103.427
103.427
103.427
103.427
103.427
103.427
103.427
103.427
103.427
103.427
103.424
103.403
103.243
293.451
191.654
144.203
121.699
111.332
106.745
104.794
103.994
103.676
103.557
103.517
103.51
103.52
103.541
103.582
103.737
104.697
110.37
133.652
191.662
399.905
2242.63
500
500
500
500
500
500
500
500
500
500
500
500
3402.22
971.375
458.618
266.313
176.982
135.253
116.656
108.761
105.538
104.259
103.761
103.569
103.493
103.462
103.448
103.441
103.437
103.435
103.433
103.431
103.43
103.43
103.429
103.428
103.428
103.428
103.428
103.427
103.427
103.427
103.427
103.427
103.427
103.427
103.427
103.427
103.427
103.427
103.424
103.403
103.243
293.452
191.662
144.223
121.734
111.377
106.796
104.846
104.043
103.722
103.599
103.557
103.549
103.559
103.582
103.623
103.731
104.264
107.352
121.501
167.663
302.159
885.172
19529.9
500
500
500
500
500
500
500
500
500
500
62844
1890.58
728.651
365.56
221.621
156.508
126.548
113.169
107.424
105.042
104.08
103.699
103.547
103.486
103.46
103.448
103.441
103.437
103.435
103.433
103.432
103.43
103.43
103.429
103.429
103.428
103.428
103.428
103.427
103.427
103.427
103.427
103.427
103.427
103.427
103.427
103.427
103.427
103.427
103.424
103.403
103.243
293.453
191.675
144.254
121.78
111.432
106.854
104.902
104.094
103.768
103.64
103.593
103.583
103.592
103.616
103.656
103.737
104.035
105.65
113.688
143.601
238.732
586.369
5057.39
500
500
500
500
500
500
500
500
500
500
9608.47
2567.92
872.466
379.164
210.263
146.266
120.754
110.417
106.236
104.559
103.893
103.628
103.521
103.477
103.457
103.447
103.441
103.437
103.435
103.433
103.432
103.43
103.43
103.429
103.429
103.428
103.428
103.428
103.427
103.427
103.427
103.427
103.427
103.427
103.427
103.427
103.427
103.427
103.427
103.424
103.403
103.243
293.454
191.694
144.299
121.842
111.501
106.922
104.963
104.147
103.812
103.677
103.624
103.61
103.616
103.637
103.675
103.739
103.901
104.62
108.229
123.055
170.255
305.267
915.072
12925
500
500
500
500
500
500
500
500
24177.6
1867.16
784.916
396.606
232.067
159.218
127.153
113.328
107.502
105.096
104.118
103.723
103.563
103.496
103.467
103.453
103.445
103.44
103.437
103.434
103.433
103.431
103.43
103.43
103.429
103.428
103.428
103.428
103.428
103.427
103.427
103.427
103.427
103.427
103.427
103.427
103.427
103.427
103.427
103.427
103.424
103.403
103.243
293.457
191.725
144.365
121.927
111.589
107.001
105.03
104.2
103.853
103.708
103.647
103.627
103.628
103.645
103.678
103.73
103.825
104.114
105.408
111.06
131.131
192.781
362.499
1556.56
10650.9
500
500
500
500
500
500
13606.5
2233.09
823.426
403.951
238.32
164.235
130.32
115.051
108.357
105.496
104.298
103.803
103.599
103.513
103.475
103.457
103.448
103.442
103.438
103.435
103.433
103.432
103.431
103.43
103.429
103.429
103.428
103.428
103.428
103.428
103.427
103.427
103.427
103.427
103.427
103.427
103.427
103.427
103.427
103.427
103.427
103.424
103.403
103.243
293.461
191.779
144.47
122.052
111.706
107.098
105.104
104.253
103.89
103.731
103.661
103.633
103.628
103.639
103.665
103.706
103.771
103.897
104.302
105.971
112.343
132.781
184.683
346.375
895.609
3120.67
8405.81
20881.6
23760.4
10326.4
3488.4
1640.17
698.767
363.255
222.994
158.837
128.723
114.725
108.372
105.563
104.349
103.832
103.613
103.52
103.478
103.459
103.448
103.442
103.438
103.436
103.433
103.432
103.431
103.43
103.429
103.429
103.428
103.428
103.428
103.427
103.427
103.427
103.427
103.427
103.427
103.427
103.427
103.427
103.427
103.427
103.427
103.427
103.424
103.403
103.243
293.47
191.877
144.645
122.242
111.869
107.219
105.185
104.304
103.918
103.745
103.664
103.627
103.615
103.619
103.637
103.668
103.714
103.782
103.919
104.343
105.889
111.112
126.019
163.395
245.583
435.297
777.491
1345.38
1634.29
1132.75
650.795
403.532
259.622
182.751
142.691
122.315
112.256
107.452
105.23
104.229
103.788
103.595
103.511
103.473
103.455
103.445
103.44
103.436
103.434
103.432
103.431
103.43
103.429
103.428
103.428
103.428
103.427
103.427
103.427
103.427
103.427
103.427
103.427
103.427
103.427
103.427
103.427
103.426
103.426
103.426
103.426
103.426
103.424
103.402
103.243
293.485
192.063
144.946
122.537
112.094
107.366
105.269
104.345
103.932
103.742
103.651
103.607
103.588
103.586
103.595
103.615
103.645
103.687
103.746
103.86
104.18
105.2
108.189
115.693
131.603
160.907
203.922
255.085
279.737
252.127
205.529
167.837
141.002
124.027
114.155
108.776
106
104.63
103.979
103.679
103.543
103.483
103.455
103.442
103.436
103.432
103.43
103.428
103.427
103.427
103.426
103.426
103.425
103.425
103.425
103.425
103.425
103.424
103.424
103.424
103.424
103.424
103.424
103.424
103.424
103.424
103.424
103.424
103.424
103.424
103.424
103.424
103.421
103.4
103.24
293.517
192.418
145.428
122.942
112.354
107.502
105.322
104.351
103.914
103.711
103.613
103.565
103.542
103.534
103.536
103.546
103.562
103.584
103.611
103.648
103.712
103.875
104.335
105.504
107.995
112.367
118.364
124.446
127.4
125.783
120.858
115.475
110.977
107.791
105.783
104.625
104.003
103.687
103.535
103.465
103.434
103.421
103.415
103.413
103.413
103.413
103.413
103.413
103.413
103.414
103.414
103.414
103.414
103.414
103.414
103.414
103.414
103.414
103.414
103.414
103.414
103.414
103.414
103.414
103.414
103.414
103.414
103.414
103.414
103.414
103.414
103.414
103.411
103.39
103.23
293.575
192.991
145.91
123.191
112.424
107.473
105.254
104.273
103.839
103.643
103.551
103.506
103.483
103.472
103.468
103.469
103.472
103.477
103.483
103.487
103.489
103.494
103.522
103.629
103.894
104.387
105.069
105.74
106.114
106.094
105.659
105.043
104.453
103.997
103.696
103.52
103.429
103.388
103.373
103.37
103.373
103.377
103.382
103.386
103.389
103.392
103.394
103.396
103.397
103.398
103.399
103.399
103.4
103.4
103.401
103.401
103.401
103.401
103.401
103.401
103.401
103.401
103.401
103.401
103.401
103.401
103.401
103.401
103.401
103.401
103.401
103.401
103.399
103.376
103.214
293.613
192.841
145.075
122.209
111.684
107.062
105.107
104.296
103.958
103.812
103.743
103.708
103.686
103.67
103.657
103.644
103.63
103.613
103.59
103.56
103.52
103.465
103.397
103.322
103.253
103.207
103.192
103.204
103.232
103.266
103.284
103.29
103.299
103.319
103.35
103.388
103.429
103.469
103.504
103.534
103.559
103.579
103.595
103.608
103.618
103.626
103.632
103.637
103.641
103.644
103.646
103.648
103.649
103.65
103.651
103.652
103.652
103.653
103.653
103.653
103.653
103.653
103.653
103.654
103.654
103.654
103.654
103.654
103.654
103.654
103.654
103.653
103.65
103.626
103.452
293.884
188.238
139.889
119.176
110.665
107.396
106.154
105.659
105.441
105.329
105.26
105.208
105.162
105.117
105.068
105.013
104.947
104.869
104.773
104.658
104.522
104.364
104.187
104
103.816
103.654
103.533
103.467
103.465
103.523
103.627
103.765
103.924
104.092
104.259
104.417
104.558
104.682
104.786
104.872
104.943
104.999
105.044
105.079
105.107
105.129
105.145
105.158
105.168
105.176
105.181
105.186
105.189
105.192
105.194
105.195
105.197
105.197
105.198
105.199
105.199
105.199
105.2
105.2
105.2
105.2
105.2
105.2
105.2
105.2
105.2
105.2
105.195
105.162
104.955
)
;

boundaryField
{
    ibCylinder
    {
        type            immersedBoundaryOmegaWallFunction;
        patchType       immersedBoundary;
        blending        stepwise;
        setDeadValue    true;
        deadValue       500;
        value           nonuniform List<scalar> 0();
    }
    in
    {
        type            fixedValue;
        value           uniform 500;
    }
    out
    {
        type            inletOutlet;
        inletValue      uniform 500;
        value           nonuniform List<scalar> 
25
(
105.968
103.78
103.289
103.243
103.242
103.243
103.243
103.243
103.243
103.243
103.243
103.243
103.243
103.243
103.243
103.243
103.243
103.243
103.243
103.243
103.24
103.23
103.214
103.452
104.955
)
;
    }
    top
    {
        type            zeroGradient;
    }
    bottom
    {
        type            zeroGradient;
    }
    frontAndBack
    {
        type            empty;
    }
}


// ************************************************************************* //
