/*--------------------------------*- C++ -*----------------------------------*\
| =========                 |                                                 |
| \\      /  F ield         | OpenFOAM: The Open Source CFD Toolbox           |
|  \\    /   O peration     | Version:  2206                                  |
|   \\  /    A nd           | Website:  www.openfoam.com                      |
|    \\/     M anipulation  |                                                 |
\*---------------------------------------------------------------------------*/
FoamFile
{
    version     2.0;
    format      ascii;
    arch        "LSB;label=32;scalar=64";
    class       volScalarField;
    location    "0.1";
    object      p;
}
// * * * * * * * * * * * * * * * * * * * * * * * * * * * * * * * * * * * * * //

dimensions      [0 2 -2 0 0 0 0];

internalField   nonuniform List<scalar> 
1875
(
2.49032
2.11241
1.86758
1.77681
1.72822
1.6895
1.65901
1.63364
1.61057
1.58829
1.56609
1.54364
1.52073
1.49715
1.47269
1.44712
1.42017
1.39155
1.36098
1.32823
1.29312
1.25563
1.2159
1.17435
1.13163
1.08877
1.0469
1.00699
0.969978
0.936506
0.906281
0.878926
0.853672
0.829804
0.806779
0.784202
0.761843
0.739634
0.71758
0.695716
0.674078
0.652689
0.631559
0.610684
0.590054
0.569653
0.549457
0.529443
0.509586
0.489863
0.470252
0.450735
0.431296
0.41192
0.392597
0.373316
0.354069
0.334851
0.315656
0.296478
0.277315
0.258162
0.239019
0.219883
0.200751
0.181625
0.162501
0.143379
0.124259
0.105141
0.0860236
0.0669069
0.0477905
0.028674
0.00955807
2.11874
1.96944
1.84932
1.77852
1.73106
1.69365
1.66284
1.63677
1.61305
1.59028
1.56781
1.54526
1.52241
1.49905
1.4749
1.44973
1.42326
1.39519
1.36519
1.33298
1.29832
1.26106
1.22123
1.17913
1.13536
1.09112
1.04773
1.00622
0.967848
0.933187
0.902132
0.874255
0.848761
0.824865
0.802022
0.779788
0.757877
0.736167
0.714613
0.693224
0.672019
0.651007
0.630196
0.609586
0.589173
0.568948
0.548897
0.528999
0.509236
0.489588
0.470036
0.450566
0.431163
0.411816
0.392515
0.373252
0.35402
0.334812
0.315625
0.296454
0.277296
0.258148
0.239008
0.219873
0.200744
0.181619
0.162496
0.143376
0.124257
0.105139
0.0860221
0.0669058
0.0477898
0.0286737
0.00955803
1.94469
1.89691
1.83202
1.77537
1.73252
1.69712
1.6669
1.64047
1.61613
1.59284
1.57006
1.54746
1.52483
1.50182
1.47816
1.45358
1.42783
1.40054
1.37132
1.33979
1.30562
1.2685
1.22835
1.18539
1.1402
1.09401
1.04825
1.00431
0.963882
0.927672
0.895663
0.866929
0.84098
0.817186
0.794728
0.773115
0.751919
0.730942
0.710108
0.689395
0.668806
0.648359
0.628045
0.607846
0.587771
0.567824
0.547998
0.528284
0.50867
0.489141
0.469683
0.450286
0.430942
0.411642
0.392378
0.373144
0.353935
0.334746
0.315573
0.296413
0.277264
0.258123
0.238988
0.219858
0.200732
0.181609
0.162489
0.14337
0.124252
0.105135
0.0860194
0.0669039
0.0477885
0.028673
0.00955785
1.86595
1.84523
1.80428
1.76143
1.72559
1.69501
1.66715
1.64156
1.61743
1.59427
1.57175
1.54958
1.5275
1.50508
1.48208
1.45826
1.43336
1.40697
1.37863
1.34789
1.31426
1.27723
1.23659
1.19273
1.14606
1.09733
1.04788
1.00094
0.957542
0.918565
0.88515
0.855716
0.829713
0.806628
0.785359
0.764949
0.744861
0.724876
0.704916
0.684974
0.665061
0.645192
0.625389
0.605656
0.585988
0.566382
0.546839
0.527359
0.507939
0.488563
0.469225
0.449923
0.430654
0.411414
0.392198
0.373003
0.353823
0.334658
0.315503
0.296358
0.27722
0.258088
0.23896
0.219836
0.200715
0.181596
0.162478
0.143361
0.124245
0.10513
0.0860155
0.0669011
0.0477866
0.0286719
0.00955748
1.81257
1.80165
1.7759
1.74532
1.71624
1.68951
1.66444
1.64042
1.6173
1.59498
1.5732
1.55173
1.53033
1.50869
1.48655
1.46372
1.43987
1.41462
1.3875
1.35789
1.32503
1.28813
1.24667
1.2016
1.15222
1.09905
1.04386
0.993493
0.946497
0.90404
0.869895
0.840033
0.814465
0.79296
0.773764
0.755429
0.736976
0.71831
0.699424
0.680378
0.661214
0.641959
0.622672
0.603397
0.584128
0.564862
0.545603
0.526354
0.507119
0.4879
0.468694
0.449499
0.430317
0.411146
0.391986
0.372836
0.353691
0.334553
0.315421
0.296293
0.277169
0.258047
0.238928
0.21981
0.200694
0.181579
0.162465
0.143351
0.124237
0.105124
0.0860107
0.0668976
0.0477842
0.0286705
0.009557
1.77451
1.76831
1.75136
1.72895
1.70549
1.68255
1.66013
1.63809
1.61649
1.59533
1.57448
1.5538
1.53318
1.51248
1.49144
1.46988
1.4475
1.4239
1.3985
1.37053
1.33889
1.30212
1.25877
1.21212
1.15842
1.09576
1.03627
0.984908
0.931723
0.884091
0.851151
0.817966
0.793994
0.776541
0.759876
0.744525
0.728423
0.711381
0.693708
0.67566
0.657329
0.638779
0.620074
0.601267
0.582382
0.563434
0.544437
0.525399
0.506333
0.487255
0.46817
0.449076
0.429977
0.410873
0.391766
0.372658
0.35355
0.33444
0.315331
0.296221
0.277112
0.258002
0.238892
0.219782
0.200671
0.181561
0.16245
0.143339
0.124228
0.105117
0.0860053
0.0668936
0.0477815
0.028669
0.00955642
1.74698
1.74307
1.73113
1.71407
1.69501
1.67535
1.65539
1.63528
1.61518
1.59522
1.57543
1.55579
1.53618
1.51654
1.49684
1.47685
1.45632
1.43485
1.41182
1.38627
1.35665
1.32032
1.2745
1.223
1.17417
1.10106
1.02913
0.991647
0.92017
0.859678
0.855161
0.802662
0.776216
0.760439
0.746331
0.732868
0.719558
0.704383
0.687935
0.670929
0.653461
0.635622
0.617503
0.599171
0.580672
0.56204
0.543303
0.524481
0.505595
0.48666
0.467688
0.448688
0.429663
0.410619
0.39156
0.372491
0.353415
0.334332
0.315244
0.296151
0.277055
0.257956
0.238855
0.219752
0.200647
0.181541
0.162435
0.143327
0.124218
0.105109
0.0859995
0.0668893
0.0477785
0.0286672
0.00955577
1.72665
1.72387
1.71487
1.70138
1.6856
1.6686
1.65077
1.63238
1.61371
1.59496
1.57626
1.55766
1.53915
1.52077
1.50254
1.48436
1.46603
1.44725
1.42738
1.4054
1.37909
1.34252
1.29628
1.24483
1.21294
0
0
0
0
0
0
0.737878
0.753177
0.742545
0.732106
0.721035
0.710481
0.69763
0.682465
0.666415
0.649783
0.632633
0.615076
0.597198
0.579068
0.560736
0.542243
0.523622
0.504901
0.486099
0.467235
0.448322
0.429368
0.410381
0.39137
0.372339
0.353292
0.334233
0.315164
0.296087
0.277003
0.257914
0.23882
0.219724
0.200624
0.181523
0.162419
0.143315
0.124208
0.105101
0.0859936
0.0668849
0.0477754
0.0286654
0.0095551
1.71158
1.70941
1.70219
1.6911
1.6777
1.66275
1.64665
1.62972
1.61231
1.59468
1.577
1.55939
1.54196
1.52488
1.50822
1.492
1.4762
1.46069
1.445
1.42829
1.40742
1.36754
1.29583
1.245
0
0
0
0
0
0
0
0
0.733639
0.721155
0.716342
0.710073
0.701615
0.691133
0.677472
0.662348
0.646464
0.629947
0.612902
0.595438
0.57764
0.559577
0.541303
0.52286
0.504284
0.4856
0.466832
0.447995
0.429104
0.410169
0.391199
0.372201
0.353181
0.334144
0.315092
0.296028
0.276956
0.257875
0.238789
0.219698
0.200603
0.181506
0.162405
0.143303
0.124199
0.105094
0.0859878
0.0668806
0.0477724
0.0286636
0.00955448
1.70067
1.69881
1.69273
1.68325
1.67151
1.65807
1.64328
1.62751
1.61112
1.59441
1.5776
1.56088
1.54447
1.5286
1.51345
1.49922
1.48611
1.47437
1.46406
1.45543
1.44451
1.42101
1.32295
0
0
0
0
0
0
0
0
0
0
0.7086
0.699975
0.700078
0.694392
0.685297
0.673077
0.658847
0.643665
0.627693
0.611083
0.593967
0.576451
0.558614
0.540523
0.522229
0.503772
0.485186
0.466497
0.447724
0.428884
0.409991
0.391056
0.372085
0.353088
0.334068
0.31503
0.295978
0.276914
0.257842
0.238761
0.219675
0.200585
0.18149
0.162392
0.143292
0.124191
0.105087
0.0859824
0.0668765
0.0477696
0.0286619
0.00955389
1.69321
1.69156
1.6862
1.67775
1.66708
1.65466
1.64079
1.62586
1.61022
1.59421
1.57807
1.56206
1.54647
1.5316
1.51773
1.50525
1.49463
1.48656
1.48173
1.48079
1.48079
1.41797
1.29536
0
0
0
0
0
0
0
0
0
0
0.698016
0.689539
0.69002
0.688574
0.680895
0.669411
0.656069
0.641474
0.625974
0.609702
0.592856
0.575555
0.557891
0.539938
0.521754
0.503388
0.484875
0.466244
0.447519
0.428719
0.409857
0.390947
0.371997
0.353016
0.334009
0.314982
0.295938
0.276882
0.257814
0.238739
0.219656
0.200569
0.181477
0.162381
0.143283
0.124183
0.105081
0.0859774
0.0668726
0.0477668
0.0286603
0.00955332
1.68886
1.68734
1.68238
1.67449
1.66442
1.65258
1.63926
1.62483
1.60966
1.59407
1.57836
1.56281
1.54775
1.53354
1.52053
1.50925
1.5004
1.49504
1.49458
1.50036
1.50904
1.41594
0
0
0
0
0
0
0
0
0
0
0
0
0.683842
0.683445
0.684432
0.677961
0.66687
0.654219
0.640024
0.62488
0.608835
0.59216
0.574995
0.55744
0.539573
0.521459
0.503148
0.48468
0.466086
0.447391
0.428614
0.409772
0.390877
0.37194
0.352969
0.33397
0.314949
0.295911
0.276858
0.257795
0.238722
0.219642
0.200556
0.181466
0.162372
0.143275
0.124176
0.105075
0.0859729
0.0668691
0.0477644
0.0286588
0.0095528
1.68742
1.68594
1.68111
1.67339
1.66351
1.65186
1.63874
1.62447
1.60945
1.59401
1.57844
1.56305
1.54818
1.5342
1.5215
1.51064
1.5024
1.49795
1.49888
1.50651
1.51153
1.42679
0
0
0
0
0
0
0
0
0
0
0
0
0.683304
0.682028
0.682904
0.677019
0.666067
0.653595
0.639518
0.624515
0.608539
0.59192
0.5748
0.557283
0.539446
0.521355
0.503063
0.484611
0.466029
0.447344
0.428575
0.409739
0.39085
0.371917
0.352949
0.333952
0.314934
0.295897
0.276846
0.257783
0.238712
0.219633
0.200548
0.181458
0.162365
0.143269
0.124171
0.105071
0.0859692
0.0668661
0.0477622
0.0286575
0.00955235
1.68882
1.68728
1.68233
1.67444
1.66437
1.65253
1.63922
1.62478
1.60961
1.59403
1.57831
1.56276
1.54771
1.53349
1.52049
1.50921
1.50035
1.49498
1.49451
1.50028
1.50904
1.41579
0
0
0
0
0
0
0
0
0
0
0
0
0.683798
0.683408
0.684387
0.677923
0.666847
0.6542
0.640003
0.624863
0.608819
0.592145
0.57498
0.557426
0.539561
0.521447
0.503137
0.484669
0.466075
0.44738
0.428603
0.409761
0.390866
0.371928
0.352956
0.333957
0.314936
0.295897
0.276845
0.257781
0.238708
0.219629
0.200544
0.181454
0.162361
0.143265
0.124167
0.105067
0.0859662
0.0668637
0.0477603
0.0286564
0.00955198
1.69312
1.69145
1.68609
1.67764
1.66698
1.65456
1.64069
1.62576
1.61013
1.59412
1.57798
1.56197
1.54638
1.53151
1.51764
1.50516
1.49454
1.48647
1.48163
1.48068
1.48073
1.41797
1.29552
0
0
0
0
0
0
0
0
0
0
0.697845
0.689456
0.689942
0.688493
0.680822
0.669357
0.65603
0.641432
0.625939
0.609669
0.592826
0.575526
0.557864
0.539913
0.521731
0.503366
0.484853
0.466223
0.447498
0.428697
0.409835
0.390924
0.371973
0.352991
0.333983
0.314955
0.295911
0.276854
0.257787
0.238712
0.21963
0.200544
0.181453
0.162359
0.143263
0.124165
0.105065
0.0859641
0.0668619
0.0477589
0.0286555
0.00955169
1.70051
1.69866
1.69257
1.68309
1.67136
1.65792
1.64313
1.62737
1.61099
1.59428
1.57747
1.56075
1.54434
1.52848
1.51333
1.4991
1.48598
1.47425
1.46392
1.45529
1.4444
1.42093
1.3229
0
0
0
0
0
0
0
0
0
0
0.708452
0.699879
0.699963
0.694287
0.685218
0.673
0.658779
0.643608
0.627642
0.611035
0.593922
0.576408
0.558575
0.540486
0.522194
0.50374
0.485154
0.466465
0.447693
0.428853
0.409959
0.391022
0.372051
0.353051
0.33403
0.314991
0.295938
0.276874
0.257802
0.238722
0.219637
0.200548
0.181455
0.16236
0.143263
0.124164
0.105064
0.0859629
0.0668607
0.0477579
0.0286548
0.00955148
1.71138
1.70921
1.70199
1.6909
1.6775
1.66256
1.64646
1.62954
1.61214
1.5945
1.57683
1.55922
1.5418
1.52472
1.50806
1.49184
1.47604
1.46053
1.44484
1.42812
1.40726
1.3674
1.29567
1.24483
0
0
0
0
0
0
0
0
0.733463
0.720993
0.716199
0.709957
0.701476
0.691024
0.677379
0.662269
0.646392
0.629879
0.612841
0.595379
0.577585
0.559526
0.541256
0.522816
0.504242
0.485559
0.466791
0.447955
0.429063
0.410127
0.391155
0.372156
0.353134
0.334094
0.315041
0.295977
0.276904
0.257824
0.238738
0.219649
0.200556
0.181461
0.162364
0.143265
0.124165
0.105064
0.0859625
0.0668602
0.0477574
0.0286545
0.00955137
1.72641
1.72364
1.71463
1.70114
1.68536
1.66837
1.65054
1.63216
1.61349
1.59475
1.57606
1.55746
1.53896
1.52057
1.50235
1.48417
1.46584
1.44706
1.42718
1.4052
1.37889
1.34232
1.29607
1.2446
1.21264
0
0
0
0
0
0
0.737687
0.752959
0.742374
0.731929
0.720867
0.710366
0.697508
0.68235
0.66632
0.649697
0.632554
0.615002
0.597129
0.579002
0.560675
0.542186
0.523569
0.50485
0.48605
0.467186
0.448272
0.429318
0.41033
0.391317
0.372284
0.353235
0.334174
0.315103
0.296025
0.27694
0.257851
0.238759
0.219664
0.200567
0.181469
0.162369
0.143269
0.124167
0.105066
0.0859631
0.0668603
0.0477574
0.0286544
0.00955138
1.74671
1.7428
1.73086
1.71379
1.69474
1.67508
1.65514
1.63502
1.61493
1.59498
1.57519
1.55555
1.53595
1.51632
1.49662
1.47663
1.45609
1.43462
1.41159
1.38604
1.35642
1.32009
1.27425
1.22273
1.17388
1.10075
1.02884
0.991383
0.919929
0.859449
0.854954
0.802448
0.776038
0.760243
0.746134
0.732701
0.719432
0.704258
0.687817
0.670823
0.653364
0.635531
0.617418
0.599091
0.580598
0.561971
0.543238
0.524421
0.505536
0.486603
0.467632
0.448631
0.429605
0.41056
0.391499
0.372427
0.353348
0.334263
0.315174
0.29608
0.276983
0.257885
0.238785
0.219684
0.200582
0.18148
0.162377
0.143274
0.124171
0.105068
0.0859646
0.0668612
0.0477579
0.0286547
0.00955151
1.7742
1.76801
1.75106
1.72864
1.70519
1.68226
1.65984
1.63781
1.61621
1.59506
1.57421
1.55354
1.53292
1.51223
1.4912
1.46963
1.44725
1.42364
1.39825
1.37028
1.33863
1.30185
1.2585
1.21184
1.15814
1.09548
1.036
0.984646
0.931472
0.883849
0.850917
0.817741
0.793784
0.776347
0.759696
0.744361
0.728276
0.711244
0.693582
0.675545
0.657221
0.638678
0.61998
0.60118
0.582301
0.563358
0.544365
0.525332
0.506269
0.487192
0.468107
0.449013
0.429912
0.410807
0.391698
0.372587
0.353476
0.334365
0.315253
0.296142
0.277032
0.257923
0.238814
0.219706
0.200599
0.181492
0.162386
0.143281
0.124176
0.105071
0.0859668
0.0668626
0.0477587
0.0286552
0.00955172
1.81224
1.80133
1.77557
1.74499
1.71591
1.68919
1.66413
1.64011
1.617
1.59468
1.57291
1.55145
1.53005
1.50841
1.48628
1.46345
1.4396
1.41435
1.38722
1.35761
1.32475
1.28785
1.24639
1.20131
1.15194
1.09877
1.04358
0.99323
0.946241
0.903796
0.869659
0.839805
0.814253
0.792761
0.773574
0.755252
0.736817
0.718163
0.699289
0.680253
0.661097
0.641851
0.622572
0.603303
0.58404
0.56478
0.545526
0.526282
0.507049
0.487831
0.468625
0.44943
0.430247
0.411074
0.391912
0.372758
0.353612
0.334471
0.315337
0.296208
0.277083
0.257962
0.238844
0.219729
0.200616
0.181505
0.162396
0.143288
0.124181
0.105075
0.0859693
0.0668643
0.0477599
0.0286558
0.00955201
1.8656
1.84488
1.80393
1.76108
1.72524
1.69467
1.66681
1.64123
1.61711
1.59396
1.57144
1.54928
1.5272
1.50478
1.48179
1.45797
1.43307
1.40667
1.37833
1.3476
1.31396
1.27694
1.2363
1.19244
1.14577
1.09704
1.04761
1.00068
0.957287
0.918319
0.884909
0.855486
0.829496
0.806421
0.785164
0.764768
0.744695
0.724723
0.704773
0.684842
0.664938
0.645079
0.625283
0.605558
0.585896
0.566296
0.546757
0.527282
0.507865
0.488491
0.469153
0.449851
0.43058
0.411338
0.392119
0.372921
0.353739
0.334571
0.315415
0.296269
0.27713
0.257998
0.238872
0.21975
0.200632
0.181518
0.162405
0.143295
0.124186
0.105079
0.085972
0.0668662
0.0477612
0.0286566
0.00955233
1.94433
1.89655
1.83166
1.77501
1.73216
1.69677
1.66656
1.64013
1.6158
1.59251
1.56973
1.54715
1.52452
1.50152
1.47785
1.45328
1.42752
1.40024
1.37101
1.33948
1.30531
1.2682
1.22805
1.1851
1.13991
1.09372
1.04797
1.00405
0.963625
0.927423
0.895421
0.866698
0.840759
0.816976
0.794531
0.772931
0.75175
0.730785
0.709962
0.689259
0.668679
0.648242
0.627936
0.607744
0.587676
0.567735
0.547914
0.528204
0.508593
0.489065
0.469608
0.450211
0.430865
0.411562
0.392296
0.37306
0.353848
0.334657
0.315482
0.296321
0.27717
0.258029
0.238896
0.219769
0.200647
0.181529
0.162414
0.143301
0.124191
0.105082
0.0859745
0.0668681
0.0477625
0.0286575
0.00955268
2.11838
1.96907
1.84895
1.77816
1.73069
1.69329
1.66249
1.63642
1.61271
1.58994
1.56748
1.54494
1.5221
1.49873
1.47459
1.44942
1.42295
1.39487
1.36487
1.33267
1.29801
1.26075
1.22093
1.17883
1.13507
1.09084
1.04745
1.00595
0.967589
0.932938
0.90189
0.874021
0.848538
0.824655
0.801824
0.779604
0.757706
0.736009
0.714466
0.693086
0.671891
0.650889
0.630086
0.609482
0.589076
0.568858
0.548811
0.528918
0.509157
0.489511
0.46996
0.450488
0.431084
0.411734
0.392431
0.373165
0.353931
0.334721
0.315532
0.29636
0.277201
0.258053
0.238914
0.219783
0.200658
0.181537
0.16242
0.143306
0.124194
0.105085
0.0859766
0.0668696
0.0477637
0.0286582
0.00955285
2.48995
2.11204
1.86721
1.77644
1.72786
1.68914
1.65865
1.63329
1.61023
1.58795
1.56576
1.54332
1.5204
1.49683
1.47237
1.4468
1.41985
1.39123
1.36066
1.32791
1.29281
1.25532
1.21559
1.17404
1.13134
1.08848
1.04662
1.00672
0.969717
0.936256
0.906039
0.878692
0.853449
0.829594
0.806583
0.784019
0.761672
0.739477
0.717434
0.695579
0.673951
0.652571
0.631448
0.610581
0.589958
0.569562
0.549371
0.52936
0.509506
0.489785
0.470175
0.450657
0.431216
0.411838
0.392512
0.373229
0.35398
0.33476
0.315562
0.296383
0.277219
0.258067
0.238926
0.219792
0.200664
0.181542
0.162424
0.143309
0.124197
0.105086
0.0859779
0.0668707
0.0477644
0.0286584
0.00955273
)
;

boundaryField
{
    ibCylinder
    {
        type            zeroGradientIb;
        patchType       immersedBoundary;
        setDeadValue    true;
        deadValue       0;
        value           nonuniform List<scalar> 0();
    }
    in
    {
        type            zeroGradient;
    }
    out
    {
        type            fixedValue;
        value           uniform 0;
    }
    top
    {
        type            zeroGradient;
    }
    bottom
    {
        type            zeroGradient;
    }
    frontAndBack
    {
        type            empty;
    }
}


// ************************************************************************* //
