/*--------------------------------*- C++ -*----------------------------------*\
| =========                 |                                                 |
| \\      /  F ield         | OpenFOAM: The Open Source CFD Toolbox           |
|  \\    /   O peration     | Version:  2206                                  |
|   \\  /    A nd           | Website:  www.openfoam.com                      |
|    \\/     M anipulation  |                                                 |
\*---------------------------------------------------------------------------*/
FoamFile
{
    version     2.0;
    format      ascii;
    arch        "LSB;label=32;scalar=64";
    class       surfaceVectorField;
    location    "0.1";
    object      Uf;
}
// * * * * * * * * * * * * * * * * * * * * * * * * * * * * * * * * * * * * * //

dimensions      [0 1 -1 0 0 0 0];

internalField   nonuniform List<vector> 
3650
(
(0.864842 0.0425642 0)
(0.901862 0.135158 0)
(0.732928 0.0671666 0)
(0.908833 0.131914 0)
(0.632195 0.0532713 0)
(0.866823 0.100734 0)
(0.566529 0.0291734 0)
(0.806121 0.065666 0)
(0.528624 0.0128934 0)
(0.762602 0.0379047 0)
(0.507543 0.00559125 0)
(0.737163 0.0210811 0)
(0.495691 0.00251435 0)
(0.72101 0.0118526 0)
(0.488777 0.0012506 0)
(0.710395 0.00691436 0)
(0.484456 0.000732506 0)
(0.703319 0.00432063 0)
(0.481454 0.000523614 0)
(0.698349 0.0030017 0)
(0.479089 0.000448313 0)
(0.694542 0.00236543 0)
(0.476983 0.000436153 0)
(0.691297 0.0021067 0)
(0.474904 0.000459399 0)
(0.688259 0.00207871 0)
(0.472692 0.000510477 0)
(0.685156 0.00221184 0)
(0.470205 0.000591036 0)
(0.681766 0.00248766 0)
(0.467296 0.000704429 0)
(0.677876 0.00290918 0)
(0.463811 0.000853226 0)
(0.673267 0.00348497 0)
(0.459586 0.00103699 0)
(0.667701 0.00422525 0)
(0.454465 0.00125131 0)
(0.660936 0.00512189 0)
(0.448319 0.00148902 0)
(0.652732 0.00614598 0)
(0.441068 0.00172355 0)
(0.64291 0.00725062 0)
(0.43278 0.0019084 0)
(0.631411 0.00828847 0)
(0.423715 0.00199029 0)
(0.618382 0.00906487 0)
(0.414387 0.00191815 0)
(0.604362 0.00932789 0)
(0.40555 0.00165867 0)
(0.59026 0.00883708 0)
(0.398088 0.00120069 0)
(0.577335 0.00746218 0)
(0.39298 0.000601536 0)
(0.567074 0.00510763 0)
(0.390753 -5.04182e-05 0)
(0.560893 0.00222713 0)
(0.391431 -0.000744149 0)
(0.559246 -0.000678474 0)
(0.3952 -0.00137596 0)
(0.562082 -0.00376859 0)
(0.401652 -0.00180852 0)
(0.56941 -0.00645123 0)
(0.409994 -0.00202143 0)
(0.580265 -0.00834236 0)
(0.419277 -0.0020277 0)
(0.593335 -0.00928231 0)
(0.428643 -0.00187787 0)
(0.607266 -0.00936659 0)
(0.437456 -0.00163258 0)
(0.620925 -0.00881261 0)
(0.445321 -0.00134876 0)
(0.633532 -0.00786472 0)
(0.452062 -0.00107049 0)
(0.644652 -0.00674106 0)
(0.457661 -0.000823028 0)
(0.654121 -0.00559919 0)
(0.4622 -0.000617013 0)
(0.661971 -0.00453816 0)
(0.465809 -0.000453304 0)
(0.668344 -0.00360925 0)
(0.468639 -0.000327357 0)
(0.67343 -0.00282966 0)
(0.470832 -0.00023299 0)
(0.677442 -0.00219311 0)
(0.472517 -0.000163496 0)
(0.680577 -0.00168487 0)
(0.473802 -0.000112768 0)
(0.683007 -0.00128511 0)
(0.474776 -7.62171e-05 0)
(0.68488 -0.000974358 0)
(0.475512 -5.03243e-05 0)
(0.686314 -0.000735343 0)
(0.476065 -3.23103e-05 0)
(0.68741 -0.000553035 0)
(0.47648 -2.00382e-05 0)
(0.688243 -0.000414853 0)
(0.47679 -1.1852e-05 0)
(0.688877 -0.000310778 0)
(0.477023 -6.47213e-06 0)
(0.689358 -0.000232595 0)
(0.477197 -2.99034e-06 0)
(0.689722 -0.000173886 0)
(0.477326 -7.93688e-07 0)
(0.689998 -0.000129793 0)
(0.477423 5.30948e-07 0)
(0.690207 -9.67175e-05 0)
(0.477495 1.26443e-06 0)
(0.690365 -7.19245e-05 0)
(0.477548 1.61548e-06 0)
(0.690484 -5.34108e-05 0)
(0.477588 1.71923e-06 0)
(0.690574 -3.95875e-05 0)
(0.477617 1.67037e-06 0)
(0.690642 -2.93246e-05 0)
(0.477639 1.51824e-06 0)
(0.690693 -2.16858e-05 0)
(0.477655 1.30782e-06 0)
(0.690731 -1.60578e-05 0)
(0.477667 1.07763e-06 0)
(0.69076 -1.18801e-05 0)
(0.477676 8.64682e-07 0)
(0.690782 -8.82969e-06 0)
(0.477682 6.78675e-07 0)
(0.690798 -6.54825e-06 0)
(0.477687 5.2207e-07 0)
(0.69081 -4.8998e-06 0)
(0.477691 3.78035e-07 0)
(0.69082 -3.65654e-06 0)
(0.477693 2.43112e-07 0)
(0.690827 -2.79688e-06 0)
(0.477696 1.41877e-07 0)
(0.690832 -2.14946e-06 0)
(0.477697 8.51701e-08 0)
(0.690836 -1.68428e-06 0)
(0.477698 3.44628e-08 0)
(0.69084 -1.29153e-06 0)
(0.477699 7.98592e-10 0)
(0.690842 -1.03584e-06 0)
(0.4777 -3.54948e-08 0)
(0.690844 -7.99714e-07 0)
(0.477701 -7.74879e-08 0)
(0.690845 -7.01628e-07 0)
(0.477701 -1.13012e-07 0)
(0.690846 -5.864e-07 0)
(0.477702 -1.32768e-07 0)
(0.690847 -5.65503e-07 0)
(0.477702 -1.49687e-07 0)
(0.690848 -5.26598e-07 0)
(0.690849 -5.09372e-07 0)
(1.04813 0.136296 0)
(1.01272 0.0870242 0)
(1.04736 0.14208 0)
(1.05042 0.13269 0)
(1.02497 0.111548 0)
(1.05933 0.123118 0)
(0.996961 0.0758885 0)
(1.05034 0.0936794 0)
(0.970646 0.0474036 0)
(1.03198 0.0642201 0)
(0.950037 0.0284405 0)
(1.01517 0.0416901 0)
(0.935142 0.0170354 0)
(1.00156 0.0267477 0)
(0.924618 0.0105441 0)
(0.990861 0.0174386 0)
(0.917059 0.00701392 0)
(0.982661 0.0118793 0)
(0.911353 0.00518872 0)
(0.976346 0.00870847 0)
(0.906697 0.00433171 0)
(0.971267 0.00702127 0)
(0.902534 0.00404902 0)
(0.96687 0.00626985 0)
(0.898475 0.00414932 0)
(0.962759 0.00613782 0)
(0.894197 0.00455068 0)
(0.958597 0.00648984 0)
(0.889409 0.00523078 0)
(0.95408 0.00727608 0)
(0.883824 0.00619497 0)
(0.948909 0.00849439 0)
(0.877146 0.00745819 0)
(0.94278 0.0101639 0)
(0.869053 0.00902131 0)
(0.935358 0.0123178 0)
(0.859227 0.010845 0)
(0.926281 0.0149483 0)
(0.847384 0.0128472 0)
(0.915135 0.0179888 0)
(0.83334 0.0148388 0)
(0.901575 0.0212948 0)
(0.817143 0.0164882 0)
(0.885383 0.024485 0)
(0.799174 0.0173673 0)
(0.866525 0.0270348 0)
(0.780387 0.0170383 0)
(0.845779 0.028114 0)
(0.762187 0.0152134 0)
(0.824267 0.0270374 0)
(0.746336 0.0117365 0)
(0.804069 0.0233136 0)
(0.734973 0.006892 0)
(0.787419 0.0164703 0)
(0.729296 0.00150079 0)
(0.776704 0.0079043 0)
(0.729645 -0.00407436 0)
(0.773204 -0.00102776 0)
(0.736031 -0.00942159 0)
(0.77658 -0.0101543 0)
(0.747789 -0.0136661 0)
(0.786727 -0.0182095 0)
(0.763453 -0.0163164 0)
(0.802293 -0.0240054 0)
(0.78125 -0.0173401 0)
(0.821355 -0.0270793 0)
(0.79953 -0.0170189 0)
(0.841709 -0.0276471 0)
(0.817035 -0.0157434 0)
(0.861694 -0.0263168 0)
(0.832921 -0.0139066 0)
(0.880142 -0.0237505 0)
(0.846773 -0.0118425 0)
(0.896459 -0.0205935 0)
(0.858489 -0.00979985 0)
(0.910405 -0.0173147 0)
(0.868164 -0.00793006 0)
(0.922002 -0.0142127 0)
(0.876003 -0.00630639 0)
(0.931455 -0.0114487 0)
(0.882262 -0.00494982 0)
(0.939034 -0.00908889 0)
(0.887208 -0.00384725 0)
(0.945047 -0.00713822 0)
(0.891082 -0.00296761 0)
(0.949779 -0.00555925 0)
(0.894095 -0.00227458 0)
(0.953477 -0.00429793 0)
(0.896424 -0.0017344 0)
(0.956349 -0.00330332 0)
(0.898216 -0.00131717 0)
(0.958569 -0.00252755 0)
(0.89959 -0.000997261 0)
(0.960277 -0.00192746 0)
(0.900641 -0.00075349 0)
(0.961588 -0.00146603 0)
(0.901444 -0.000568603 0)
(0.962591 -0.0011135 0)
(0.902056 -0.00042863 0)
(0.963359 -0.000844919 0)
(0.902523 -0.000322743 0)
(0.963946 -0.000640509 0)
(0.902878 -0.00024269 0)
(0.964394 -0.000485047 0)
(0.903148 -0.000182214 0)
(0.964736 -0.000366876 0)
(0.903354 -0.000136597 0)
(0.964997 -0.000277119 0)
(0.903509 -0.000102276 0)
(0.965195 -0.000209081 0)
(0.903627 -7.65062e-05 0)
(0.965345 -0.000157648 0)
(0.903717 -5.71912e-05 0)
(0.96546 -0.000118806 0)
(0.903784 -4.27297e-05 0)
(0.965547 -8.9511e-05 0)
(0.903836 -3.19129e-05 0)
(0.965613 -6.74073e-05 0)
(0.903875 -2.38319e-05 0)
(0.965663 -5.07674e-05 0)
(0.903904 -1.78086e-05 0)
(0.965701 -3.82357e-05 0)
(0.903926 -1.33305e-05 0)
(0.96573 -2.88379e-05 0)
(0.903943 -1.00077e-05 0)
(0.965752 -2.17758e-05 0)
(0.903956 -7.5498e-06 0)
(0.965768 -1.64907e-05 0)
(0.903966 -5.73625e-06 0)
(0.965781 -1.25153e-05 0)
(0.903973 -4.38407e-06 0)
(0.96579 -9.54054e-06 0)
(0.903979 -3.36765e-06 0)
(0.965798 -7.27434e-06 0)
(0.903983 -2.60202e-06 0)
(0.965803 -5.58136e-06 0)
(0.903986 -2.02587e-06 0)
(0.965807 -4.29687e-06 0)
(0.903989 -1.61801e-06 0)
(0.96581 -3.34857e-06 0)
(0.90399 -1.32428e-06 0)
(0.965813 -2.66413e-06 0)
(0.903992 -1.12257e-06 0)
(0.965815 -2.14176e-06 0)
(0.903993 -9.87488e-07 0)
(0.965816 -1.78136e-06 0)
(0.903994 -8.6401e-07 0)
(0.965817 -1.46849e-06 0)
(0.965819 -1.20109e-06 0)
(1.03646 0.0980908 0)
(1.00994 0.0505633 0)
(1.06715 0.119943 0)
(1.0418 0.101999 0)
(1.08232 0.106587 0)
(1.06777 0.107952 0)
(1.08335 0.0826669 0)
(1.08146 0.0926491 0)
(1.07598 0.0591921 0)
(1.08204 0.0715869 0)
(1.06635 0.0405998 0)
(1.07668 0.0513213 0)
(1.05688 0.0276811 0)
(1.06998 0.0362226 0)
(1.04864 0.019204 0)
(1.06323 0.0256718 0)
(1.04182 0.0139059 0)
(1.05713 0.0187035 0)
(1.03618 0.0107872 0)
(1.05192 0.0143456 0)
(1.03139 0.00913455 0)
(1.04741 0.0118113 0)
(1.02705 0.00848483 0)
(1.04341 0.0106119 0)
(1.02284 0.00858259 0)
(1.0396 0.0103485 0)
(1.01844 0.00931758 0)
(1.03574 0.0108858 0)
(1.01355 0.0106537 0)
(1.03154 0.0121719 0)
(1.00783 0.0126001 0)
(1.02671 0.0142091 0)
(1.00097 0.0151922 0)
(1.02094 0.0170289 0)
(0.992573 0.0184506 0)
(1.01383 0.0207149 0)
(0.982193 0.0223369 0)
(1.00499 0.0253291 0)
(0.969364 0.0267211 0)
(0.993843 0.0308173 0)
(0.953679 0.0312683 0)
(0.979814 0.0369806 0)
(0.934892 0.035392 0)
(0.96232 0.0432715 0)
(0.913252 0.038151 0)
(0.940941 0.0486745 0)
(0.889833 0.0384736 0)
(0.916416 0.0515333 0)
(0.86634 0.0354796 0)
(0.890227 0.0505304 2.65861e-34)
(0.845155 0.0283614 0)
(0.864986 0.044499 -2.68153e-34)
(0.829219 0.0176987 0)
(0.843727 0.0324053 0)
(0.820519 0.00553532 0)
(0.830103 0.0166041 0)
(0.819889 -0.00689292 0)
(0.825468 -0.000397821 0)
(0.827001 -0.0187567 0)
(0.829292 -0.0172657 0)
(0.841033 -0.0285141 0)
(0.841151 -0.032241 0)
(0.860069 -0.0348924 0)
(0.859498 -0.0430413 0)
(0.881726 -0.037608 0)
(0.88183 -0.048736 0)
(0.90383 -0.0372049 0)
(0.905452 -0.0497513 0)
(0.924816 -0.0345919 0)
(0.928352 -0.0473031 0)
(0.94373 -0.0307067 0)
(0.949239 -0.0426644 0)
(0.960143 -0.0263312 0)
(0.967466 -0.0370056 0)
(0.973965 -0.0219737 0)
(0.982824 -0.0311374 0)
(0.985334 -0.017947 0)
(0.995427 -0.0255814 0)
(0.99452 -0.0144135 0)
(1.00558 -0.0206339 0)
(1.00184 -0.0114222 0)
(1.01365 -0.0164129 0)
(1.00763 -0.00895507 0)
(1.02001 -0.0129294 0)
(1.01219 -0.0069615 0)
(1.02499 -0.0101125 0)
(1.01574 -0.00537708 0)
(1.02888 -0.00785204 0)
(1.0185 -0.00413323 0)
(1.03189 -0.00606233 0)
(1.02063 -0.00316547 0)
(1.03422 -0.00465993 0)
(1.02228 -0.00241763 0)
(1.03602 -0.00357013 0)
(1.02354 -0.00184316 0)
(1.0374 -0.00272791 0)
(1.02451 -0.00140366 0)
(1.03845 -0.00208188 0)
(1.02525 -0.0010679 0)
(1.03926 -0.00158723 0)
(1.02582 -0.000811615 0)
(1.03989 -0.00120883 0)
(1.02625 -0.000616175 0)
(1.04036 -0.000919689 0)
(1.02658 -0.000467238 0)
(1.04073 -0.000698873 0)
(1.02684 -0.000353889 0)
(1.041 -0.000530389 0)
(1.02703 -0.000267812 0)
(1.04122 -0.000402176 0)
(1.02718 -0.00020256 0)
(1.04138 -0.000304801 0)
(1.02729 -0.000153136 0)
(1.0415 -0.000230899 0)
(1.02737 -0.000115718 0)
(1.0416 -0.000174824 0)
(1.02744 -8.7413e-05 0)
(1.04167 -0.000132301 0)
(1.02749 -6.60315e-05 0)
(1.04172 -0.000100103 0)
(1.02753 -4.99033e-05 0)
(1.04176 -7.5754e-05 0)
(1.02755 -3.7752e-05 0)
(1.0418 -5.73586e-05 0)
(1.02758 -2.86022e-05 0)
(1.04182 -4.34731e-05 0)
(1.02759 -2.17065e-05 0)
(1.04184 -3.2985e-05 0)
(1.02761 -1.65009e-05 0)
(1.04185 -2.50501e-05 0)
(1.02761 -1.25648e-05 0)
(1.04186 -1.90409e-05 0)
(1.02762 -9.58915e-06 0)
(1.04187 -1.4491e-05 0)
(1.02763 -7.34852e-06 0)
(1.04188 -1.106e-05 0)
(1.02763 -5.67217e-06 0)
(1.04188 -8.48386e-06 0)
(1.02763 -4.42761e-06 0)
(1.04188 -6.5623e-06 0)
(1.02764 -3.49585e-06 0)
(1.04189 -5.12808e-06 0)
(1.02764 -2.80224e-06 0)
(1.04189 -4.02672e-06 0)
(1.02764 -2.26958e-06 0)
(1.04189 -3.23001e-06 0)
(1.02764 -1.81637e-06 0)
(1.04189 -2.56712e-06 0)
(1.04189 -1.98479e-06 0)
(1.01861 0.0623253 0)
(1.00442 0.031954 0)
(1.047 0.0902598 0)
(1.02481 0.0736067 0)
(1.06842 0.0920183 0)
(1.04898 0.0865304 0)
(1.07937 0.0800369 0)
(1.06595 0.0817073 0)
(1.08227 0.0628381 0)
(1.07482 0.0686865 0)
(1.08015 0.0465519 0)
(1.07661 0.0534382 0)
(1.07611 0.0340322 0)
(1.07534 0.0402642 0)
(1.07156 0.0250699 0)
(1.07261 0.030224 0)
(1.06714 0.0190611 0)
(1.06939 0.0231208 0)
(1.06308 0.0152976 0)
(1.06619 0.0184045 0)
(1.05938 0.0132355 0)
(1.0631 0.0155145 0)
(1.0559 0.0124516 0)
(1.0602 0.0140839 0)
(1.05246 0.0126495 0)
(1.05731 0.0137945 0)
(1.0488 0.0137427 0)
(1.05431 0.0145415 0)
(1.04467 0.0157219 0)
(1.05101 0.0163022 0)
(1.03978 0.0186167 0)
(1.04715 0.0191066 0)
(1.03376 0.0225076 0)
(1.04244 0.023043 0)
(1.02622 0.0275175 0)
(1.03649 0.0282613 0)
(1.01662 0.0337023 0)
(1.02883 0.0349257 0)
(1.00431 0.0409583 0)
(1.0188 0.0431228 0)
(0.988522 0.0488869 0)
(1.0055 0.0527729 0)
(0.96851 0.0565366 0)
(0.987759 0.0632834 0)
(0.944169 0.0621252 0)
(0.964519 0.0730164 0)
(0.916976 0.0637627 2.65861e-34)
(0.936632 0.0787253 0)
(0.889119 0.0599393 -2.55302e-36)
(0.906849 0.0783876 2.65861e-34)
(0.863658 0.0491509 -2.68153e-34)
(0.879217 0.0699602 -2.68153e-34)
(0.84466 0.0319991 0)
(0.856537 0.0514037 0)
(0.834987 0.0113241 0)
(0.845348 0.0262763 0)
(0.834656 -0.0102596 0)
(0.842705 -6.64883e-05 0)
(0.843091 -0.0304473 0)
(0.847353 -0.0257007 0)
(0.859438 -0.0465879 0)
(0.859079 -0.0485879 0)
(0.88118 -0.0567508 0)
(0.877714 -0.064783 0)
(0.905451 -0.060814 0)
(0.900691 -0.0730068 0)
(0.929891 -0.0598594 0)
(0.925212 -0.074191 0)
(0.952764 -0.0554349 0)
(0.949087 -0.0701765 0)
(0.973018 -0.0490371 0)
(0.970797 -0.0629175 0)
(0.990196 -0.0418809 0)
(0.989433 -0.0541842 0)
(1.00433 -0.0348139 0)
(1.00474 -0.0452689 0)
(1.01571 -0.0283411 0)
(1.01697 -0.0369615 0)
(1.02474 -0.0227093 0)
(1.02657 -0.0296667 0)
(1.03184 -0.0179988 0)
(1.03405 -0.0235126 0)
(1.03739 -0.0141675 0)
(1.03983 -0.0184744 0)
(1.0417 -0.0110792 0)
(1.04428 -0.0144259 0)
(1.04504 -0.0086022 0)
(1.04771 -0.0111939 0)
(1.04762 -0.00664115 0)
(1.05034 -0.00864313 0)
(1.04961 -0.0051052 0)
(1.05237 -0.00664767 0)
(1.05114 -0.00391071 0)
(1.05392 -0.00509803 0)
(1.05231 -0.00298716 0)
(1.05511 -0.00390067 0)
(1.05321 -0.00227801 0)
(1.05602 -0.00298242 0)
(1.0539 -0.00173573 0)
(1.05672 -0.00227861 0)
(1.05443 -0.00132174 0)
(1.05725 -0.00173879 0)
(1.05484 -0.0010057 0)
(1.05766 -0.00132529 0)
(1.05515 -0.000764432 0)
(1.05798 -0.00100891 0)
(1.05538 -0.000580505 0)
(1.05822 -0.000767106 0)
(1.05557 -0.000440602 0)
(1.0584 -0.000583075 0)
(1.0557 -0.000334315 0)
(1.05854 -0.000443071 0)
(1.05581 -0.000253569 0)
(1.05864 -0.000336495 0)
(1.05589 -0.000192228 0)
(1.05873 -0.000255356 0)
(1.05595 -0.000145665 0)
(1.05879 -0.000193654 0)
(1.056 -0.000110377 0)
(1.05884 -0.000146871 0)
(1.05603 -8.36663e-05 0)
(1.05887 -0.000111403 0)
(1.05606 -6.34622e-05 0)
(1.0589 -8.45361e-05 0)
(1.05608 -4.81735e-05 0)
(1.05892 -6.41746e-05 0)
(1.0561 -3.65891e-05 0)
(1.05894 -4.87541e-05 0)
(1.05611 -2.78031e-05 0)
(1.05895 -3.70335e-05 0)
(1.05612 -2.11402e-05 0)
(1.05896 -2.81512e-05 0)
(1.05613 -1.6102e-05 0)
(1.05897 -2.1409e-05 0)
(1.05613 -1.23083e-05 0)
(1.05897 -1.63359e-05 0)
(1.05613 -9.46492e-06 0)
(1.05897 -1.25076e-05 0)
(1.05614 -7.33234e-06 0)
(1.05898 -9.64906e-06 0)
(1.05614 -5.71352e-06 0)
(1.05898 -7.4839e-06 0)
(1.05614 -4.4939e-06 0)
(1.05898 -5.82182e-06 0)
(1.05614 -3.55307e-06 0)
(1.05898 -4.6049e-06 0)
(1.05614 -2.75228e-06 0)
(1.05898 -3.59711e-06 0)
(1.05899 -2.7092e-06 0)
(1.01032 0.0440757 0)
(1.00243 0.021632 0)
(1.02982 0.0692027 0)
(1.01499 0.0541042 0)
(1.04818 0.0755165 0)
(1.03286 0.0681781 0)
(1.06132 0.0700109 0)
(1.04846 0.0685641 0)
(1.06887 0.0589658 0)
(1.05926 0.0611384 0)
(1.07172 0.04682 0)
(1.0651 0.0505892 0)
(1.07177 0.0362131 0)
(1.06749 0.040211 0)
(1.07039 0.0280876 0)
(1.06789 0.0316031 0)
(1.06839 0.0223278 0)
(1.06721 0.0251276 0)
(1.06616 0.0185355 0)
(1.06598 0.0206252 0)
(1.06387 0.0163241 0)
(1.06449 0.0178069 0)
(1.06154 0.0154188 0)
(1.06289 0.0164139 0)
(1.05912 0.0156842 0)
(1.06117 0.0162162 0)
(1.05649 0.017087 0)
(1.05926 0.0171767 0)
(1.05345 0.0196513 0)
(1.0571 0.0193398 0)
(1.04977 0.0234653 0)
(1.05451 0.0227907 0)
(1.04511 0.0286885 0)
(1.05124 0.0276984 0)
(1.03905 0.0355264 0)
(1.04696 0.0343265 0)
(1.03096 0.0441798 0)
(1.04118 0.0430103 0)
(1.01999 0.0547702 0)
(1.03315 0.0540951 0)
(1.00483 0.0670612 0)
(1.02166 0.067928 0)
(0.984009 0.0798434 0)
(1.00469 0.0841089 0)
(0.956863 0.090002 0)
(0.980253 0.100163 0)
(0.926619 0.0942332 0)
(0.951432 0.10897 0)
(0.897376 0.089509 0)
(0.923253 0.10763 0)
(0.872462 0.0723206 0)
(0.90553 0.0948747 0)
(0.856967 0.0448383 0)
(0.900034 0.0668987 0)
(0.85316 0.0141934 0)
(0.90571 0.0300824 0)
(0.855285 -0.015892 0)
(0.90997 -0.00219106 0)
(0.862719 -0.0441323 0)
(0.909906 -0.0331352 0)
(0.877216 -0.0668049 0)
(0.909697 -0.063084 0)
(0.897209 -0.0808017 0)
(0.916355 -0.0847763 0)
(0.920318 -0.0862388 0)
(0.92937 -0.096116 0)
(0.944278 -0.0844365 0)
(0.947573 -0.0981505 0)
(0.967084 -0.0775893 0)
(0.9677 -0.0929824 0)
(0.98726 -0.0680271 0)
(0.987273 -0.0830935 0)
(1.00403 -0.0575502 0)
(1.00451 -0.0709588 0)
(1.01743 -0.0473921 0)
(1.01845 -0.0586685 0)
(1.02787 -0.038261 0)
(1.02923 -0.0474012 0)
(1.03591 -0.0304479 0)
(1.03738 -0.0377004 0)
(1.04206 -0.0239764 0)
(1.04351 -0.0296616 0)
(1.04674 -0.018736 0)
(1.04811 -0.023161 0)
(1.05031 -0.0145569 0)
(1.05156 -0.0179882 0)
(1.05302 -0.011258 0)
(1.05416 -0.0139089 0)
(1.05509 -0.00867451 0)
(1.05611 -0.0107162 0)
(1.05668 -0.00666398 0)
(1.05759 -0.00823242 0)
(1.05789 -0.00510929 0)
(1.05872 -0.00630968 0)
(1.05882 -0.00391586 0)
(1.05958 -0.00482839 0)
(1.05953 -0.00300153 0)
(1.06023 -0.00369312 0)
(1.06007 -0.00229765 0)
(1.06073 -0.00282224 0)
(1.06049 -0.00175526 0)
(1.06111 -0.00215389 0)
(1.0608 -0.00133863 0)
(1.0614 -0.001642 0)
(1.06105 -0.00101932 0)
(1.06162 -0.00125053 0)
(1.06123 -0.000775324 0)
(1.06179 -0.00095138 0)
(1.06137 -0.000589428 0)
(1.06192 -0.000724144 0)
(1.06148 -0.000447859 0)
(1.06202 -0.000551285 0)
(1.06156 -0.000340059 0)
(1.0621 -0.000419273 0)
(1.06163 -0.000258016 0)
(1.06215 -0.000318586 0)
(1.06167 -0.000195738 0)
(1.0622 -0.000241872 0)
(1.06171 -0.000148539 0)
(1.06223 -0.000183687 0)
(1.06174 -0.000112762 0)
(1.06226 -0.000139524 0)
(1.06176 -8.56253e-05 0)
(1.06228 -0.000106006 0)
(1.06178 -6.50415e-05 0)
(1.06229 -8.05451e-05 0)
(1.06179 -4.94165e-05 0)
(1.0623 -6.12294e-05 0)
(1.0618 -3.75513e-05 0)
(1.06231 -4.65381e-05 0)
(1.06181 -2.85546e-05 0)
(1.06232 -3.53806e-05 0)
(1.06181 -2.17494e-05 0)
(1.06232 -2.69223e-05 0)
(1.06182 -1.66195e-05 0)
(1.06233 -2.05485e-05 0)
(1.06182 -1.27529e-05 0)
(1.06233 -1.57378e-05 0)
(1.06182 -9.84493e-06 0)
(1.06233 -1.21147e-05 0)
(1.06182 -7.62342e-06 0)
(1.06234 -9.37155e-06 0)
(1.06182 -5.95277e-06 0)
(1.06234 -7.2514e-06 0)
(1.06183 -4.66184e-06 0)
(1.06234 -5.69273e-06 0)
(1.06183 -3.56058e-06 0)
(1.06234 -4.42111e-06 0)
(1.06234 -3.28548e-06 0)
(1.00619 0.0323855 0)
(1.00149 0.0154446 0)
(1.01971 0.0532828 0)
(1.00974 0.0405776 0)
(1.03435 0.0610178 0)
(1.023 0.0535458 0)
(1.04665 0.0593463 0)
(1.03622 0.0562604 0)
(1.05544 0.0524521 0)
(1.04682 0.05235 0)
(1.06083 0.0437112 0)
(1.05415 0.0451985 0)
(1.06362 0.0353793 0)
(1.05871 0.0374216 0)
(1.0647 0.0285131 0)
(1.06131 0.0305191 0)
(1.06477 0.0233729 0)
(1.0626 0.0250586 0)
(1.06428 0.0198835 0)
(1.06309 0.0211169 0)
(1.06348 0.01788 0)
(1.06309 0.0186056 0)
(1.06248 0.0171713 0)
(1.06281 0.017418 0)
(1.06127 0.0176591 0)
(1.06232 0.0174266 0)
(1.05984 0.0193806 0)
(1.06166 0.0186027 0)
(1.05811 0.0224288 0)
(1.06082 0.0210683 0)
(1.05592 0.0269715 0)
(1.05971 0.024984 0)
(1.05301 0.033279 0)
(1.05821 0.0306081 0)
(1.049 0.0417375 0)
(1.05609 0.0383366 0)
(1.04327 0.0528305 0)
(1.05296 0.048746 0)
(1.03478 0.0671633 0)
(1.0482 0.0625842 0)
(1.02161 0.0849578 0)
(1.04031 0.0811023 0)
(1.00149 0.104469 0)
(1.02638 0.104228 0)
(0.97419 0.119016 0)
(1.00373 0.127459 0)
(0.948656 0.121186 0)
(0.984432 0.134503 0)
(0.932552 0.111331 0)
(0.976902 0.123734 0)
(0.932472 0.0877829 0)
(0.995881 0.0949549 0)
(0.948202 0.0491248 0)
(1.03298 0.0511689 0)
(0.963244 0.00990502 0)
(1.06278 0.0150403 -2.80279e-17)
(0.964505 -0.0233376 0)
(1.07271 -0.00345217 -2.48553e-17)
(0.955386 -0.0574884 0)
(1.0633 -0.0240158 -5.54441e-19)
(0.94936 -0.0859935 0)
(1.04454 -0.0570582 0)
(0.948414 -0.102513 0)
(1.01994 -0.08383 0)
(0.95624 -0.109188 0)
(0.998249 -0.103943 0)
(0.970937 -0.107248 0)
(0.994074 -0.112847 0)
(0.987791 -0.0987266 0)
(1.00085 -0.109836 0)
(1.00459 -0.0860839 0)
(1.0119 -0.0998932 0)
(1.01901 -0.0721003 0)
(1.024 -0.0853824 0)
(1.03031 -0.0586825 0)
(1.03448 -0.0699656 0)
(1.03878 -0.0468342 0)
(1.04243 -0.0558661 0)
(1.04502 -0.0369026 0)
(1.04814 -0.0439407 0)
(1.04959 -0.0288277 0)
(1.05222 -0.0342392 0)
(1.05295 -0.0223859 0)
(1.05512 -0.0265196 0)
(1.05542 -0.0173084 0)
(1.05719 -0.0204588 0)
(1.05725 -0.0133374 0)
(1.05868 -0.0157378 0)
(1.05862 -0.0102495 0)
(1.05976 -0.0120793 0)
(1.05964 -0.00785945 0)
(1.06055 -0.00925498 0)
(1.06041 -0.00601607 0)
(1.06113 -0.00708125 0)
(1.06099 -0.00459871 0)
(1.06157 -0.00541272 0)
(1.06144 -0.00351183 0)
(1.0619 -0.00413502 0)
(1.06177 -0.00267981 0)
(1.06215 -0.00315716 0)
(1.06203 -0.00204357 0)
(1.06234 -0.00240885 0)
(1.06222 -0.00155731 0)
(1.06248 -0.00183653 0)
(1.06237 -0.00118595 0)
(1.06259 -0.00139912 0)
(1.06248 -0.000903472 0)
(1.06267 -0.00106512 0)
(1.06257 -0.000689171 0)
(1.06273 -0.000811251 0)
(1.06264 -0.000525538 0)
(1.06278 -0.000617958 0)
(1.06269 -0.000400167 0)
(1.06282 -0.00047019 0)
(1.06273 -0.00030436 0)
(1.06285 -0.000357491 0)
(1.06276 -0.000231358 0)
(1.06287 -0.000271595 0)
(1.06278 -0.000175862 0)
(1.06288 -0.000206358 0)
(1.0628 -0.00013363 0)
(1.0629 -0.000156897 0)
(1.06281 -0.000101534 0)
(1.06291 -0.000119338 0)
(1.06282 -7.7172e-05 0)
(1.06291 -9.07377e-05 0)
(1.06283 -5.86695e-05 0)
(1.06292 -6.90053e-05 0)
(1.06283 -4.46002e-05 0)
(1.06292 -5.24896e-05 0)
(1.06284 -3.39205e-05 0)
(1.06293 -3.99111e-05 0)
(1.06284 -2.58479e-05 0)
(1.06293 -3.04076e-05 0)
(1.06284 -1.97591e-05 0)
(1.06293 -2.32201e-05 0)
(1.06285 -1.51663e-05 0)
(1.06293 -1.78019e-05 0)
(1.06285 -1.16897e-05 0)
(1.06293 -1.36837e-05 0)
(1.06285 -9.03355e-06 0)
(1.06294 -1.05765e-05 0)
(1.06285 -7.0174e-06 0)
(1.06294 -8.17015e-06 0)
(1.06285 -5.46707e-06 0)
(1.06294 -6.37648e-06 0)
(1.06285 -4.15248e-06 0)
(1.06294 -4.95561e-06 0)
(1.06294 -3.65007e-06 0)
(1.00407 0.0242115 0)
(1.00102 0.0113708 0)
(1.01397 0.0411091 0)
(1.00688 0.0306811 0)
(1.02574 0.0487519 0)
(1.01715 0.0417787 0)
(1.0367 0.0490992 0)
(1.02831 0.045303 0)
(1.04557 0.0449236 0)
(1.03818 0.0434731 0)
(1.05206 0.0387598 0)
(1.04594 0.0387096 0)
(1.05644 0.0324426 0)
(1.05162 0.0330432 0)
(1.05922 0.0269698 0)
(1.05562 0.0277342 0)
(1.06091 0.0227249 0)
(1.05835 0.0233719 0)
(1.06188 0.0197803 0)
(1.06021 0.0201473 0)
(1.0624 0.0181125 0)
(1.06148 0.018092 0)
(1.06263 0.017664 0)
(1.06239 0.0171862 0)
(1.06268 0.0183651 0)
(1.06311 0.0173725 0)
(1.0626 0.0202891 0)
(1.06374 0.0186871 0)
(1.06236 0.0236289 0)
(1.06429 0.0213052 0)
(1.06193 0.0286216 0)
(1.06482 0.0254205 0)
(1.06118 0.0356455 0)
(1.06535 0.0313537 0)
(1.0599 0.0452819 0)
(1.06584 0.0396158 0)
(1.05765 0.0583715 0)
(1.06615 0.0509945 0)
(1.05356 0.0763551 0)
(1.0663 0.0666762 0)
(1.04516 0.100297 0)
(1.06477 0.0895097 0)
(1.02966 0.126592 0)
(1.05782 0.119723 0)
(1.01309 0.140081 0)
(1.04482 0.144028 0)
(1.01285 0.129844 0)
(1.04207 0.134747 2.04039e-18)
(1.04591 0.0998395 0)
(1.05624 0.0906749 3.15458e-48)
(1.09419 0.0547947 0)
(0.531968 0.47061 0)
(1.14491 0.0173164 -2.80279e-17)
(0.563516 0.318578 0)
(1.17425 0.00309944 -5.28832e-17)
(0.583703 0.23936 -2.80279e-17)
(1.17252 -0.00343373 -2.54097e-17)
(0.58916 0.222704 -2.48553e-17)
(1.14931 -0.0189362 -5.54441e-19)
(0.582295 0.246265 -5.54441e-19)
(1.12254 -0.0466946 0)
(0.569071 0.157059 0)
(1.06876 -0.080598 0)
(1.14287 -0.0300443 0)
(1.035 -0.106843 0)
(1.10159 -0.0701859 0)
(1.02396 -0.115204 0)
(1.06652 -0.10181 0)
(1.02486 -0.110956 0)
(1.05245 -0.110729 0)
(1.03128 -0.0992068 0)
(1.04923 -0.106313 0)
(1.03961 -0.0832554 0)
(1.05125 -0.093714 0)
(1.04671 -0.0671697 0)
(1.05508 -0.0770638 0)
(1.05184 -0.0529867 0)
(1.05842 -0.0609969 0)
(1.05537 -0.0412838 0)
(1.0606 -0.0474767 0)
(1.05776 -0.0319363 0)
(1.0619 -0.0366299 0)
(1.05937 -0.0245976 0)
(1.06263 -0.0281264 0)
(1.06045 -0.0188927 0)
(1.06301 -0.0215404 0)
(1.06119 -0.0144833 0)
(1.06318 -0.0164723 0)
(1.06169 -0.0110875 0)
(1.06324 -0.0125853 0)
(1.06205 -0.00847869 0)
(1.06325 -0.00960958 0)
(1.0623 -0.00647852 0)
(1.06323 -0.00733413 0)
(1.06248 -0.00494746 0)
(1.0632 -0.00559576 0)
(1.06262 -0.00377664 0)
(1.06317 -0.00426857 0)
(1.06272 -0.00288159 0)
(1.06314 -0.00325548 0)
(1.06279 -0.00219748 0)
(1.06312 -0.00248207 0)
(1.06284 -0.00167481 0)
(1.0631 -0.00189166 0)
(1.06289 -0.00127568 0)
(1.06308 -0.00144108 0)
(1.06292 -0.000971209 0)
(1.06307 -0.00109743 0)
(1.06294 -0.000739216 0)
(1.06306 -0.000835778 0)
(1.06296 -0.000562462 0)
(1.06306 -0.000636482 0)
(1.06298 -0.000427755 0)
(1.06305 -0.000484453 0)
(1.06299 -0.000325135 0)
(1.06305 -0.00036851 0)
(1.06299 -0.000247054 0)
(1.06304 -0.00028017 0)
(1.063 -0.000187867 0)
(1.06304 -0.000212989 0)
(1.06301 -0.000143086 0)
(1.06304 -0.00016204 0)
(1.06301 -0.000108998 0)
(1.06304 -0.000123332 0)
(1.06301 -8.29735e-05 0)
(1.06304 -9.38005e-05 0)
(1.06302 -6.31703e-05 0)
(1.06304 -7.13582e-05 0)
(1.06302 -4.80863e-05 0)
(1.06304 -5.42941e-05 0)
(1.06302 -3.66245e-05 0)
(1.06304 -4.13174e-05 0)
(1.06302 -2.79527e-05 0)
(1.06304 -3.15103e-05 0)
(1.06302 -2.13895e-05 0)
(1.06304 -2.41045e-05 0)
(1.06302 -1.64124e-05 0)
(1.06304 -1.84875e-05 0)
(1.06302 -1.26367e-05 0)
(1.06304 -1.42145e-05 0)
(1.06302 -9.76067e-06 0)
(1.06304 -1.09798e-05 0)
(1.06302 -7.56256e-06 0)
(1.06304 -8.49238e-06 0)
(1.06302 -5.88891e-06 0)
(1.06304 -6.60437e-06 0)
(1.06302 -4.46887e-06 0)
(1.06304 -5.1603e-06 0)
(1.06304 -3.78897e-06 0)
(1.00296 0.0181885 0)
(1.00077 0.00840892 0)
(1.01062 0.0315433 0)
(1.00526 0.0230195 0)
(1.02034 0.0383519 0)
(1.01359 0.0320651 0)
(1.03006 0.0396071 0)
(1.02321 0.0355757 0)
(1.03864 0.0371607 0)
(1.03231 0.0348982 0)
(1.04557 0.0328947 0)
(1.04008 0.0317774 0)
(1.05086 0.0282471 0)
(1.04633 0.0277501 0)
(1.05478 0.024064 0)
(1.0512 0.023815 0)
(1.05766 0.0207401 0)
(1.05494 0.0204911 0)
(1.05981 0.0184218 0)
(1.05785 0.0180008 0)
(1.06148 0.0171428 0)
(1.06018 0.0164276 0)
(1.06287 0.0168892 0)
(1.06216 0.0157886 0)
(1.06415 0.0177067 0)
(1.06399 0.0160929 0)
(1.06539 0.0197249 0)
(1.06581 0.017447 0)
(1.0667 0.0231208 0)
(1.06772 0.0200022 0)
(1.06816 0.0281699 0)
(1.06989 0.0239642 0)
(1.06985 0.0353117 0)
(1.0725 0.0296608 0)
(1.07186 0.0452384 0)
(1.07578 0.0376045 0)
(1.0743 0.0590473 0)
(1.08 0.048555 0)
(1.07707 0.0793504 0)
(1.08644 0.0639087 0)
(1.07779 0.108143 0)
(1.09448 0.0887878 0)
(1.07529 0.137127 0)
(1.09506 0.12222 0)
(1.0766 0.141373 2.04039e-18)
(1.0824 0.142722 0)
(1.10417 0.104046 2.04039e-18)
(1.10815 0.109103 2.04039e-18)
(1.39158 0.0374622 -2.54117e-32)
(0.547127 0.35815 3.15458e-48)
(0.763359 0 0)
(0 0.0325031 0)
(0.395068 0 0)
(0 0.0038304 0)
(0.392916 0 0)
(0 -0.000351869 0)
(0.445655 0 0)
(0 0.00650396 0)
(0.51627 0 0)
(0 0.0378133 0)
(0.889538 -0.00360031 0)
(0 0.0725823 0)
(1.17087 -0.0251498 0)
(0.596249 0.0902259 0)
(1.13312 -0.0654021 0)
(1.18358 -0.0257533 -1.21208e-17)
(1.09499 -0.0968949 0)
(1.14413 -0.0636784 -3.64259e-18)
(1.07682 -0.105975 0)
(1.11181 -0.0925632 0)
(1.06899 -0.100806 0)
(1.09446 -0.0984829 0)
(1.06688 -0.0874749 0)
(1.0848 -0.0916001 0)
(1.06697 -0.0708596 0)
(1.07958 -0.077156 0)
(1.06723 -0.0554807 0)
(1.07667 -0.0612529 0)
(1.06715 -0.0428224 0)
(1.07438 -0.0474002 0)
(1.06679 -0.0328195 0)
(1.07234 -0.0362688 0)
(1.06629 -0.0250697 0)
(1.07055 -0.027624 0)
(1.06575 -0.0191214 0)
(1.06903 -0.0210054 0)
(1.06525 -0.0145762 0)
(1.06776 -0.0159681 0)
(1.06481 -0.0111095 0)
(1.06673 -0.0121423 0)
(1.06443 -0.00846716 0)
(1.06591 -0.00923732 0)
(1.06413 -0.00645351 0)
(1.06526 -0.00703044 0)
(1.06389 -0.00491903 0)
(1.06475 -0.00535281 0)
(1.0637 -0.00374952 0)
(1.06435 -0.00407668 0)
(1.06354 -0.00285788 0)
(1.06405 -0.00310531 0)
(1.06343 -0.00217789 0)
(1.06381 -0.00236546 0)
(1.06334 -0.00165928 0)
(1.06363 -0.00180174 0)
(1.06327 -0.00126386 0)
(1.06349 -0.00137218 0)
(1.06322 -0.000962565 0)
(1.06339 -0.00104491 0)
(1.06318 -0.000733071 0)
(1.06331 -0.000795689 0)
(1.06315 -0.00055816 0)
(1.06325 -0.000605849 0)
(1.06312 -0.000424794 0)
(1.0632 -0.000461146 0)
(1.06311 -0.000323147 0)
(1.06316 -0.000350865 0)
(1.06309 -0.000245771 0)
(1.06314 -0.000266882 0)
(1.06308 -0.000186925 0)
(1.06312 -0.00020302 0)
(1.06307 -0.000142172 0)
(1.0631 -0.000154482 0)
(1.06307 -0.000108115 0)
(1.06309 -0.000117571 0)
(1.06306 -8.22149e-05 0)
(1.06308 -8.94437e-05 0)
(1.06306 -6.25346e-05 0)
(1.06307 -6.80696e-05 0)
(1.06306 -4.75875e-05 0)
(1.06307 -5.1816e-05 0)
(1.06306 -3.62704e-05 0)
(1.06306 -3.94883e-05 0)
(1.06305 -2.77327e-05 0)
(1.06306 -3.01473e-05 0)
(1.06305 -2.12706e-05 0)
(1.06306 -2.30966e-05 0)
(1.06305 -1.6348e-05 0)
(1.06306 -1.77289e-05 0)
(1.06305 -1.26062e-05 0)
(1.06306 -1.36545e-05 0)
(1.06305 -9.75092e-06 0)
(1.06306 -1.05486e-05 0)
(1.06305 -7.5637e-06 0)
(1.06306 -8.18774e-06 0)
(1.06305 -5.89771e-06 0)
(1.06305 -6.36886e-06 0)
(1.06305 -4.495e-06 0)
(1.06305 -5.01832e-06 0)
(1.06305 -3.7017e-06 0)
(1.00234 0.0134567 0)
(1.00062 0.006074 0)
(1.00859 0.0236846 0)
(1.00429 0.0167637 0)
(1.01689 0.0293321 0)
(1.01135 0.0237685 0)
(1.02565 0.0308445 0)
(1.0199 0.0268093 0)
(1.03385 0.0294636 0)
(1.02837 0.0267037 0)
(1.04092 0.0265734 0)
(1.03601 0.024705 0)
(1.04674 0.0232614 0)
(1.04253 0.021936 0)
(1.05141 0.0201947 0)
(1.04794 0.0191436 0)
(1.05516 0.0177169 0)
(1.05239 0.0167391 0)
(1.05824 0.0159844 0)
(1.05608 0.0149226 0)
(1.06088 0.0150621 0)
(1.05926 0.0137867 0)
(1.06329 0.0149908 0)
(1.06213 0.0133745 0)
(1.06565 0.0158473 0)
(1.0649 0.013739 0)
(1.06811 0.017758 0)
(1.06774 0.0149855 0)
(1.07087 0.020896 0)
(1.07087 0.0172415 0)
(1.07415 0.0255155 0)
(1.07451 0.0206842 0)
(1.07825 0.0320032 0)
(1.07898 0.0255676 0)
(1.0836 0.0409054 0)
(1.08472 0.0322478 0)
(1.09116 0.0530738 0)
(1.09219 0.0409972 0)