/*--------------------------------*- C++ -*----------------------------------*\
| =========                 |                                                 |
| \\      /  F ield         | OpenFOAM: The Open Source CFD Toolbox           |
|  \\    /   O peration     | Version:  2206                                  |
|   \\  /    A nd           | Website:  www.openfoam.com                      |
|    \\/     M anipulation  |                                                 |
\*---------------------------------------------------------------------------*/
FoamFile
{
    version     2.0;
    format      ascii;
    arch        "LSB;label=32;scalar=64";
    class       volScalarField;
    location    "0.3";
    object      epsilon;
}
// * * * * * * * * * * * * * * * * * * * * * * * * * * * * * * * * * * * * * //

dimensions      [0 2 -3 0 0 0 0];

internalField   nonuniform List<scalar> 
1875
(
0.000325568
0.000695754
0.00139318
0.00195417
0.00214689
0.00209691
0.00194848
0.00179108
0.00166241
0.00156904
0.00150514
0.00146246
0.00143389
0.00141397
0.00139945
0.00138799
0.00137806
0.00136852
0.00135853
0.0013474
0.0013346
0.0013198
0.00130294
0.00128441
0.00126524
0.00124724
0.00123296
0.00122533
0.00122704
0.00123973
0.00126333
0.00129561
0.00133267
0.00136816
0.00139677
0.00141688
0.00142865
0.0014333
0.00143279
0.00142916
0.00142413
0.00141876
0.00141367
0.00140908
0.00140502
0.00140146
0.00139833
0.00139559
0.00139319
0.00139111
0.00138933
0.00138781
0.00138653
0.00138546
0.00138458
0.00138385
0.00138326
0.00138278
0.00138239
0.00138207
0.00138182
0.00138162
0.00138146
0.00138133
0.00138123
0.00138115
0.00138109
0.00138104
0.001381
0.00138098
0.00138096
0.00138096
0.00138101
0.00138116
0.00138146
0.000230267
0.000318855
0.000493937
0.00069157
0.000846923
0.000921383
0.000936303
0.000917414
0.00088525
0.000852437
0.000824284
0.000802049
0.000785194
0.000772375
0.00076208
0.00075337
0.000745557
0.000738013
0.000730207
0.000721683
0.00071206
0.00070104
0.000688435
0.000674232
0.000658681
0.000642415
0.000626519
0.000612472
0.000601926
0.000596381
0.000596778
0.000603162
0.000614571
0.000629326
0.000645387
0.000660993
0.000675178
0.000687499
0.000697971
0.00070686
0.000714478
0.000721072
0.00072679
0.000731698
0.000735827
0.000739215
0.000741924
0.000744037
0.000745644
0.000746842
0.000747716
0.000748343
0.000748785
0.00074909
0.000749296
0.000749433
0.00074952
0.000749574
0.000749605
0.00074962
0.000749626
0.000749626
0.000749622
0.000749616
0.00074961
0.000749604
0.000749598
0.000749593
0.000749589
0.000749585
0.000749584
0.000749591
0.000749629
0.00074979
0.000750381
0.000199079
0.00021499
0.000254394
0.000306861
0.000355755
0.000388157
0.000403212
0.000405165
0.000398321
0.000387905
0.000377065
0.000367402
0.000359431
0.000353079
0.000348195
0.000344176
0.000340652
0.000337374
0.000334128
0.000330731
0.000327021
0.000322865
0.000318147
0.000312775
0.00030671
0.000300028
0.000293011
0.000286186
0.000280275
0.000276079
0.000274234
0.000274948
0.000277941
0.000282721
0.000289078
0.00029596
0.000302588
0.000308515
0.000313613
0.000317943
0.00032164
0.00032485
0.000327671
0.000330149
0.0003323
0.000334127
0.000335646
0.00033688
0.00033786
0.000338623
0.000339207
0.000339648
0.000339978
0.000340221
0.000340398
0.000340526
0.000340618
0.000340683
0.000340729
0.000340761
0.000340783
0.000340797
0.000340807
0.000340813
0.000340817
0.000340819
0.00034082
0.000340821
0.000340821
0.000340821
0.000340821
0.000340825
0.000340845
0.000340946
0.000341429
0.000189413
0.000183789
0.000186
0.000193922
0.000203619
0.000210858
0.00021377
0.000212523
0.000208445
0.000203182
0.000197903
0.000193211
0.000189291
0.000186165
0.000183744
0.000181971
0.000180574
0.000179407
0.000178364
0.000177369
0.000176361
0.000175284
0.000174075
0.000172646
0.000170892
0.000168736
0.000166214
0.000163528
0.000161055
0.00015928
0.000158616
0.000159165
0.000160456
0.00016209
0.000164264
0.000166805
0.000169295
0.000171404
0.000173046
0.000174269
0.000175181
0.000175901
0.000176508
0.000177044
0.000177525
0.00017795
0.000178317
0.000178626
0.000178878
0.000179079
0.000179235
0.000179354
0.000179444
0.000179511
0.000179559
0.000179594
0.000179619
0.000179636
0.000179647
0.000179655
0.00017966
0.000179663
0.000179665
0.000179666
0.000179666
0.000179666
0.000179666
0.000179665
0.000179665
0.000179664
0.000179664
0.000179665
0.000179673
0.000179717
0.000179952
0.000186625
0.000174337
0.00016601
0.000160851
0.000157654
0.00015514
0.000152429
0.000149218
0.000145691
0.000142138
0.000138873
0.000136093
0.00013387
0.000132169
0.000130904
0.000129998
0.000129386
0.000128958
0.000128652
0.000128427
0.000128249
0.000128073
0.000127821
0.000127359
0.000126517
0.000125172
0.000123264
0.00012096
0.000118591
0.000116591
0.000115455
0.000116057
0.000116981
0.00011791
0.000118614
0.000119759
0.000121628
0.000123679
0.000125413
0.000126651
0.000127453
0.000127952
0.000128251
0.000128417
0.000128515
0.000128572
0.000128603
0.00012862
0.00012863
0.000128636
0.00012864
0.000128643
0.000128643
0.000128642
0.000128641
0.00012864
0.000128638
0.000128637
0.000128636
0.000128634
0.000128633
0.000128632
0.000128631
0.00012863
0.000128629
0.000128628
0.000128627
0.000128627
0.000128626
0.000128626
0.000128626
0.000128626
0.000128628
0.00012864
0.000128711
0.000185794
0.000171534
0.000160055
0.000151026
0.000143943
0.000138288
0.000133625
0.000129663
0.000126267
0.000123389
0.000121037
0.000119195
0.000117791
0.000116757
0.000116017
0.000115504
0.000115177
0.000114985
0.000114889
0.000114857
0.000114844
0.000114759
0.000114428
0.000113589
0.00011193
0.000109201
0.000105343
0.000100427
9.45163e-05
8.81783e-05
8.2268e-05
8.40802e-05
9.08844e-05
9.56518e-05
9.38725e-05
9.06077e-05
9.09682e-05
9.59882e-05
0.000101615
0.000106123
0.000109382
0.000111559
0.000112957
0.00011382
0.000114325
0.000114597
0.000114723
0.000114765
0.000114762
0.000114739
0.000114711
0.000114684
0.000114661
0.000114643
0.000114629
0.000114618
0.00011461
0.000114604
0.0001146
0.000114597
0.000114594
0.000114593
0.000114591
0.00011459
0.000114589
0.000114589
0.000114588
0.000114588
0.000114587
0.000114587
0.000114587
0.000114587
0.000114586
0.000114586
0.000114583
0.000185509
0.000170627
0.000158169
0.000147939
0.000139666
0.000133051
0.000127801
0.000123651
0.000120387
0.000117846
0.000115899
0.000114445
0.000113387
0.000112638
0.00011212
0.00011178
0.000111572
0.000111463
0.000111423
0.000111408
0.000111325
0.000110979
0.000110038
0.000108042
0.000104494
9.901e-05
9.15143e-05
8.1744e-05
6.88926e-05
5.60707e-05
2.92557e-05
4.8732e-05
7.98255e-05
0.000103059
8.1844e-05
5.01685e-05
3.03121e-05
5.96542e-05
7.59749e-05
8.76338e-05
9.61829e-05
0.000101991
0.000105752
0.000108116
0.000109558
0.0001104
0.000110865
0.0001111
0.000111204
0.000111237
0.000111236
0.00011122
0.0001112
0.000111182
0.000111167
0.000111155
0.000111145
0.000111138
0.000111133
0.00011113
0.000111127
0.000111125
0.000111124
0.000111122
0.000111122
0.000111121
0.000111121
0.00011112
0.00011112
0.00011112
0.00011112
0.000111119
0.000111118
0.000111113
0.000111084
0.000185392
0.000170283
0.00015748
0.000146839
0.000138171
0.000131248
0.000125823
0.000121642
0.000118465
0.000116086
0.000114332
0.000113064
0.000112167
0.000111548
0.000111135
0.00011087
0.000110714
0.000110636
0.000110598
0.000110519
0.000110225
0.000109382
0.000107488
0.00010391
9.80362e-05
8.95118e-05
7.88129e-05
6.53647e-05
4.63231e-05
4.71632e-05
0.00016307
0.0002
0.0002
0.0002
0.0002
0.0002
0.000143422
4.70029e-05
5.7538e-05
7.11625e-05
8.3786e-05
9.34009e-05
9.996e-05
0.000104209
0.000106872
0.000108484
0.000109423
0.000109942
0.000110211
0.000110338
0.000110389
0.000110401
0.000110397
0.000110386
0.000110375
0.000110365
0.000110356
0.00011035
0.000110345
0.000110341
0.000110339
0.000110337
0.000110335
0.000110334
0.000110334
0.000110333
0.000110333
0.000110332
0.000110332
0.000110332
0.000110332
0.000110331
0.00011033
0.000110323
0.000110287
0.000185336
0.000170127
0.000157179
0.000146369
0.000137545
0.000130509
0.000125028
0.000120849
0.000117723
0.000115427
0.000113769
0.000112594
0.000111778
0.000111226
0.000110864
0.000110637
0.000110506
0.000110436
0.000110368
0.000110169
0.000109561
0.00010808
0.00010511
9.99452e-05
9.19417e-05
8.11235e-05
7.01365e-05
5.99532e-05
4.77779e-05
0.000399296
0.0002
0.0002
0.0002
0.0002
0.0002
0.0002
0.0002
0.000412525
4.65708e-05
5.62151e-05
7.20062e-05
8.53872e-05
9.46603e-05
0.000100763
0.000104653
0.000107061
0.000108503
0.000109334
0.00010979
0.000110028
0.000110142
0.00011019
0.000110205
0.000110205
0.0001102
0.000110193
0.000110186
0.000110181
0.000110176
0.000110173
0.000110171
0.000110169
0.000110168
0.000110167
0.000110166
0.000110165
0.000110165
0.000110165
0.000110164
0.000110164
0.000110164
0.000110164
0.000110163
0.000110155
0.000110117
0.000185307
0.000170047
0.000157027
0.000146134
0.000137234
0.000130146
0.000124643
0.00012047
0.000117374
0.000115122
0.000113515
0.00011239
0.000111619
0.000111103
0.000110769
0.000110562
0.000110443
0.000110367
0.000110252
0.000109908
0.000108965
0.000106873
0.000102993
9.66901e-05
8.75172e-05
7.51496e-05
5.92543e-05
3.10249e-05
0.000158424
0.0002
0.0002
0.0002
0.0002
0.0002
0.0002
0.0002
0.0002
0.0002
0.000144138
2.95033e-05
6.02561e-05
7.87002e-05
9.0507e-05
9.80838e-05
0.000102917
0.000105947
0.000107797
0.00010889
0.000109512
0.000109851
0.000110025
0.000110108
0.000110144
0.000110155
0.000110156
0.000110153
0.000110149
0.000110144
0.000110141
0.000110138
0.000110136
0.000110135
0.000110133
0.000110133
0.000110132
0.000110132
0.000110131
0.000110131
0.000110131
0.000110131
0.00011013
0.00011013
0.000110129
0.000110122
0.000110082
0.00018529
0.000170004
0.000156945
0.000146007
0.000137065
0.000129949
0.000124435
0.000120267
0.000117188
0.000114961
0.000113382
0.000112284
0.000111537
0.000111042
0.000110723
0.000110528
0.000110414
0.000110329
0.000110173
0.000109714
0.000108535
0.000106065
0.000101727
9.50925e-05
8.65753e-05
7.71467e-05
6.86093e-05
5.64207e-05
0.0002
0.0002
0.0002
0.0002
0.0002
0.0002
0.0002
0.0002
0.0002
0.0002
0.0002
4.94618e-05
6.0074e-05
7.58585e-05
8.81703e-05
9.64515e-05
0.000101813
0.000105214
0.000107318
0.000108583
0.000109318
0.000109729
0.000109948
0.000110059
0.000110111
0.000110133
0.00011014
0.00011014
0.000110138
0.000110135
0.000110132
0.00011013
0.000110129
0.000110127
0.000110126
0.000110126
0.000110125
0.000110125
0.000110125
0.000110124
0.000110124
0.000110124
0.000110124
0.000110124
0.000110122
0.000110115
0.000110076
0.000185282
0.000169981
0.000156903
0.000145942
0.000136979
0.000129848
0.000124327
0.000120163
0.000117093
0.00011488
0.000113315
0.000112232
0.000111498
0.000111013
0.000110703
0.000110513
0.000110402
0.000110316
0.000110147
0.000109659
0.000108422
0.0001059
0.000101608
9.50065e-05
8.60686e-05
7.58188e-05
6.26142e-05
9.6098e-05
0.0002
0.0002
0.0002
0.0002
0.0002
0.0002
0.0002
0.0002
0.0002
0.0002
0.0002
8.26323e-05
7.32681e-05
8.07064e-05
8.98329e-05
9.68602e-05
0.000101765
0.000105038
0.00010714
0.000108441
0.000109216
0.000109659
0.000109901
0.000110028
0.000110091
0.000110119
0.00011013
0.000110133
0.000110133
0.000110131
0.000110129
0.000110128
0.000110126
0.000110125
0.000110125
0.000110124
0.000110124
0.000110123
0.000110123
0.000110123
0.000110123
0.000110123
0.000110123
0.000110122
0.000110121
0.000110114
0.000110075
0.00018528
0.000169974
0.00015689
0.000145922
0.000136953
0.000129818
0.000124297
0.000120136
0.000117072
0.000114864
0.000113306
0.000112229
0.000111499
0.000111016
0.000110708
0.000110519
0.000110408
0.000110323
0.00011016
0.000109682
0.000108468
0.000106013
0.00010189
9.53769e-05
8.60393e-05
7.50444e-05
6.35587e-05
0.000121392
0.0002
0.0002
0.0002
0.0002
0.0002
0.0002
0.0002
0.0002
0.0002
0.0002
0.0002
0.000107637
8.36374e-05
8.52437e-05
9.18823e-05
9.77585e-05
0.000102126
0.000105157
0.00010716
0.000108424
0.00010919
0.000109635
0.000109882
0.000110014
0.00011008
0.000110112
0.000110125
0.000110129
0.00011013
0.000110129
0.000110128
0.000110126
0.000110125
0.000110125
0.000110124
0.000110124
0.000110123
0.000110123
0.000110123
0.000110123
0.000110123
0.000110123
0.000110122
0.000110122
0.000110121
0.000110114
0.000110074
0.000185282
0.000169981
0.000156903
0.000145942
0.000136982
0.000129855
0.00012434
0.000120183
0.000117121
0.000114913
0.000113353
0.000112272
0.000111538
0.000111051
0.000110737
0.000110544
0.000110429
0.00011034
0.00011017
0.00010968
0.000108444
0.000105933
0.000101657
9.50303e-05
8.60748e-05
7.58761e-05
6.27871e-05
9.6098e-05
0.0002
0.0002
0.0002
0.0002
0.0002
0.0002
0.0002
0.0002
0.0002
0.0002
0.0002
8.26435e-05
7.34956e-05
8.13437e-05
9.03502e-05
9.71867e-05
0.000101935
0.000105105
0.000107151
0.000108425
0.000109191
0.000109634
0.00010988
0.000110012
0.000110078
0.00011011
0.000110123
0.000110128
0.000110129
0.000110128
0.000110127
0.000110126
0.000110125
0.000110124
0.000110124
0.000110124
0.000110123
0.000110123
0.000110123
0.000110123
0.000110123
0.000110123
0.000110122
0.000110122
0.000110121
0.000110114
0.000110074
0.00018529
0.000170003
0.000156945
0.000146008
0.000137071
0.000129962
0.000124459
0.000120304
0.000117239
0.000115023
0.000113451
0.000112357
0.000111609
0.00011111
0.000110786
0.000110585
0.000110464
0.000110374
0.000110212
0.000109752
0.000108583
0.00010615
0.000101873
9.52952e-05
8.68188e-05
7.73903e-05
6.88479e-05
5.63822e-05
0.0002
0.0002
0.0002
0.0002
0.0002
0.0002
0.0002
0.0002
0.0002
0.0002
0.0002
4.95187e-05
6.03439e-05
7.65875e-05
8.86449e-05
9.66782e-05
0.000101874
0.000105181
0.000107244
0.0001085
0.000109241
0.000109665
0.000109899
0.000110022
0.000110084
0.000110113
0.000110125
0.000110129
0.00011013
0.000110129
0.000110128
0.000110127
0.000110126
0.000110125
0.000110124
0.000110124
0.000110124
0.000110123
0.000110123
0.000110123
0.000110123
0.000110123
0.000110123
0.000110123
0.000110121
0.000110114
0.000110075
0.000185306
0.000170047
0.000157027
0.000146136
0.000137241
0.000130163
0.000124674
0.000120519
0.00011744
0.000115203
0.000113606
0.000112485
0.000111712
0.000111192
0.00011085
0.000110635
0.000110507
0.000110423
0.000110301
0.000109955
0.000109029
0.000106995
0.000103228
9.70882e-05
8.80701e-05
7.56957e-05
5.96918e-05
3.11317e-05
0.000158424
0.0002
0.0002
0.0002
0.0002
0.0002
0.0002
0.0002
0.0002
0.0002
0.000144476
2.95492e-05
6.05642e-05
7.89859e-05
9.05571e-05
9.79703e-05
0.00010272
0.000105726
0.000107588
0.000108711
0.000109368
0.00010974
0.000109942
0.000110047
0.000110099
0.000110123
0.000110132
0.000110134
0.000110134
0.000110133
0.000110131
0.00011013
0.000110129
0.000110128
0.000110127
0.000110127
0.000110127
0.000110126
0.000110126
0.000110126
0.000110126
0.000110126
0.000110126
0.000110126
0.000110124
0.000110117
0.000110078
0.000185336
0.000170127
0.000157179
0.00014637
0.00013755
0.000130522
0.000125053
0.000120889
0.00011778
0.000115499
0.000113852
0.000112683
0.000111867
0.00011131
0.00011094
0.000110705
0.000110565
0.000110486
0.00011041
0.000110208
0.000109614
0.000108191
0.00010535
0.000100378
9.25901e-05
8.19559e-05
7.12102e-05
6.09891e-05
4.77699e-05
0.000399296
0.0002
0.0002
0.0002
0.0002
0.0002
0.0002
0.0002
0.000413929
4.6725e-05
5.62411e-05
7.21788e-05
8.51617e-05
9.42677e-05
0.000100304
0.000104197
0.000106651
0.000108159
0.000109059
0.000109578
0.000109867
0.000110021
0.000110099
0.000110135
0.00011015
0.000110155
0.000110155
0.000110153
0.000110151
0.000110149
0.000110148
0.000110147
0.000110146
0.000110145
0.000110145
0.000110144
0.000110144
0.000110144
0.000110144
0.000110143
0.000110143
0.000110143
0.000110143
0.000110142
0.000110134
0.000110095
0.000185392
0.000170284
0.000157479
0.000146834
0.000138158
0.000131225
0.000125791
0.000121606
0.000118432
0.00011606
0.000114316
0.000113056
0.000112164
0.000111547
0.000111131
0.000110863
0.000110702
0.000110619
0.000110576
0.000110494
0.000110207
0.000109406
0.000107618
0.000104227
9.86141e-05
9.04287e-05
8.00417e-05
6.65149e-05
4.68525e-05
4.70586e-05
0.00016307
0.0002
0.0002
0.0002
0.0002
0.0002
0.000144193
4.72111e-05
5.74921e-05
7.1227e-05
8.34926e-05
9.27601e-05
9.91794e-05
0.000103432
0.000106173
0.000107894
0.000108943
0.000109561
0.00010991
0.000110099
0.000110195
0.00011024
0.000110258
0.000110263
0.000110262
0.00011026
0.000110257
0.000110254
0.000110252
0.00011025
0.000110248
0.000110247
0.000110247
0.000110246
0.000110246
0.000110246
0.000110245
0.000110245
0.000110245
0.000110245
0.000110245
0.000110245
0.000110243
0.000110236
0.000110197
0.00018551
0.00017063
0.000158165
0.00014791
0.000139581
0.000132885
0.000127544
0.000123317
0.000120003
0.000117442
0.0001155
0.000114066
0.000113032
0.000112307
0.000111808
0.000111483
0.000111286
0.000111185
0.000111149
0.000111138
0.000111061
0.00011074
0.000109868
0.000108014
0.000104703
9.95449e-05
9.24116e-05
8.29375e-05
7.03498e-05
5.74129e-05
2.91248e-05
4.8639e-05
7.98542e-05
0.000103285
8.21928e-05
5.04522e-05
3.04762e-05
5.94219e-05
7.56134e-05
8.68977e-05
9.50817e-05
0.000100732
0.00010451
0.000106987
0.000108576
0.000109566
0.000110159
0.000110499
0.000110683
0.000110775
0.000110815
0.000110829
0.000110829
0.000110825
0.000110819
0.000110813
0.000110809
0.000110805
0.000110802
0.0001108
0.000110799
0.000110798
0.000110797
0.000110796
0.000110796
0.000110795
0.000110795
0.000110795
0.000110795
0.000110795
0.000110795
0.000110794
0.000110793
0.000110786
0.000110747
0.000185799
0.000171544
0.00016004
0.000150907
0.00014361
0.000137649
0.000132655
0.000128408
0.000124825
0.000121866
0.000119517
0.000117731
0.000116406
0.000115454
0.000114789
0.000114339
0.000114061
0.000113907
0.00011384
0.000113831
0.000113839
0.000113779
0.000113495
0.00011275
0.000111259
0.000108786
0.000105259
0.000100699
9.51096e-05
8.90627e-05
8.3217e-05
8.45454e-05
9.1077e-05
9.57122e-05
9.37878e-05
9.02954e-05
9.03462e-05
9.4978e-05
9.99858e-05
0.000104204
0.000107351
0.000109562
0.000111078
0.000112093
0.00011275
0.000113156
0.00011339
0.000113514
0.00011357
0.000113589
0.000113589
0.000113581
0.000113571
0.000113561
0.000113552
0.000113545
0.00011354
0.000113536
0.000113533
0.000113531
0.000113529
0.000113528
0.000113527
0.000113526
0.000113526
0.000113525
0.000113525
0.000113525
0.000113525
0.000113525
0.000113524
0.000113524
0.000113523
0.000113516
0.000113478
0.000186642
0.000174373
0.000165961
0.000160461
0.0001566
0.000153196
0.000149579
0.000145643
0.000141671
0.000137947
0.000134716
0.000132091
0.00013007
0.000128574
0.000127493
0.00012674
0.000126249
0.000125915
0.000125684
0.000125522
0.000125398
0.000125276
0.000125083
0.000124702
0.000123983
0.000122818
0.000121148
0.000119115
0.000117007
0.00011522
0.000114141
0.000114485
0.0001151
0.000115897
0.000116622
0.000117678
0.000119247
0.000120888
0.000122292
0.000123346
0.000124089
0.000124616
0.00012499
0.000125245
0.000125426
0.00012555
0.00012563
0.00012568
0.000125709
0.000125725
0.000125734
0.000125737
0.000125736
0.000125734
0.000125731
0.000125729
0.000125726
0.000125724
0.000125722
0.000125721
0.000125719
0.000125718
0.000125717
0.000125717
0.000125716
0.000125715
0.000125715
0.000125714
0.000125714
0.000125714
0.000125714
0.000125713
0.000125712
0.000125706
0.000125673
0.000189463
0.000183899
0.000185856
0.000192827
0.000200819
0.00020596
0.000206943
0.000204324
0.000199538
0.000194126
0.00018906
0.000184758
0.000181273
0.000178553
0.000176475
0.000174975
0.000173791
0.000172791
0.000171882
0.000170999
0.000170089
0.000169104
0.000167985
0.000166656
0.000165024
0.000163022
0.000160693
0.000158225
0.000155973
0.000154384
0.000153824
0.000154366
0.000155594
0.000157163
0.00015927
0.000161653
0.000163901
0.000165755
0.00016719
0.000168277
0.00016912
0.000169814
0.000170416
0.000170952
0.000171427
0.000171838
0.000172184
0.000172466
0.00017269
0.000172863
0.000172995
0.000173094
0.000173167
0.000173221
0.000173259
0.000173287
0.000173306
0.000173319
0.000173328
0.000173335
0.000173338
0.000173341
0.000173342
0.000173343
0.000173343
0.000173343
0.000173343
0.000173343
0.000173343
0.000173342
0.000173342
0.000173342
0.000173341
0.00017334
0.000173331
0.000199203
0.000215244
0.000253995
0.000304221
0.000349498
0.000378002
0.000390048
0.000390339
0.00038307
0.000373041
0.000362969
0.000354158
0.000346962
0.000341243
0.000336848
0.000333193
0.000329938
0.00032686
0.000323766
0.000320484
0.000316866
0.000312786
0.000308135
0.000302831
0.000296844
0.00029026
0.00028337
0.000276695
0.000270945
0.000266893
0.000265144
0.000265885
0.000268836
0.000273517
0.000279741
0.000286429
0.000292869
0.00029866
0.000303692
0.000308018
0.000311749
0.000315003
0.000317859
0.000320353
0.000322498
0.000324304
0.000325792
0.000326992
0.000327938
0.00032867
0.000329228
0.000329649
0.000329963
0.000330195
0.000330364
0.000330487
0.000330576
0.000330639
0.000330684
0.000330716
0.000330738
0.000330753
0.000330764
0.000330771
0.000330775
0.000330778
0.000330779
0.00033078
0.000330781
0.000330781
0.000330781
0.000330782
0.000330786
0.000330806
0.000330883
0.000230461
0.000319161
0.000492758
0.000686027
0.000835489
0.000905077
0.000917485
0.000898272
0.000867127
0.000835834
0.000809176
0.000788182
0.000772261
0.000760111
0.00075027
0.000741865
0.000734251
0.000726831
0.000719094
0.000710599
0.000700974
0.000689925
0.000677271
0.000663005
0.000647385
0.000631053
0.000615101
0.000601002
0.000590392
0.000584744
0.000584972
0.000591105
0.000602193
0.000616588
0.000632325
0.000647711
0.00066185
0.000674297
0.00068503
0.000694258
0.000702235
0.000709163
0.000715164
0.000720297
0.000724597
0.000728112
0.000730914
0.000733096
0.000734756
0.000735994
0.000736902
0.000737555
0.000738019
0.000738342
0.000738565
0.000738715
0.000738813
0.000738877
0.000738915
0.000738937
0.000738948
0.000738952
0.000738952
0.000738949
0.000738944
0.000738939
0.000738934
0.00073893
0.000738926
0.000738922
0.00073892
0.000738923
0.000738947
0.000739045
0.000739398
0.000325289
0.000694218
0.00138828
0.00194452
0.00213327
0.00208128
0.00193261
0.00177603
0.00164853
0.00155626
0.00149324
0.00145121
0.00142308
0.00140347
0.00138915
0.00137781
0.00136797
0.00135848
0.00134851
0.00133739
0.00132461
0.00130982
0.00129297
0.00127448
0.00125538
0.00123749
0.00122335
0.00121587
0.00121769
0.00123044
0.00125402
0.00128622
0.00132316
0.0013585
0.00138695
0.00140697
0.0014187
0.00142334
0.00142284
0.00141923
0.00141423
0.00140888
0.00140379
0.00139921
0.00139515
0.00139159
0.00138847
0.00138573
0.00138334
0.00138127
0.00137949
0.00137798
0.00137671
0.00137565
0.00137477
0.00137405
0.00137347
0.00137299
0.0013726
0.00137229
0.00137204
0.00137184
0.00137168
0.00137156
0.00137145
0.00137137
0.00137131
0.00137126
0.00137122
0.00137119
0.00137117
0.00137118
0.00137124
0.00137153
0.00137249
)
;

boundaryField
{
    ibCylinder
    {
        type            immersedBoundaryEpsilonWallFunction;
        patchType       immersedBoundary;
        blending        stepwise;
        setDeadValue    true;
        deadValue       0.0002;
        value           nonuniform List<scalar> 0();
    }
    in
    {
        type            fixedValue;
        value           uniform 0.0002;
    }
    out
    {
        type            inletOutlet;
        inletValue      uniform 0.0002;
        value           nonuniform List<scalar> 
25
(
0.00138146
0.000750381
0.000341429
0.000179952
0.000128711
0.000114583
0.000111084
0.000110287
0.000110117
0.000110082
0.000110076
0.000110075
0.000110074
0.000110074
0.000110075
0.000110078
0.000110095
0.000110197
0.000110747
0.000113478
0.000125673
0.000173331
0.000330883
0.000739398
0.00137249
)
;
    }
    top
    {
        type            zeroGradient;
    }
    bottom
    {
        type            zeroGradient;
    }
    frontAndBack
    {
        type            empty;
    }
}


// ************************************************************************* //
