/*--------------------------------*- C++ -*----------------------------------*\
| =========                 |                                                 |
| \\      /  F ield         | OpenFOAM: The Open Source CFD Toolbox           |
|  \\    /   O peration     | Version:  2206                                  |
|   \\  /    A nd           | Website:  www.openfoam.com                      |
|    \\/     M anipulation  |                                                 |
\*---------------------------------------------------------------------------*/
FoamFile
{
    version     2.0;
    format      ascii;
    arch        "LSB;label=32;scalar=64";
    class       volScalarField;
    location    "0.3";
    object      k;
}
// * * * * * * * * * * * * * * * * * * * * * * * * * * * * * * * * * * * * * //

dimensions      [0 2 -2 0 0 0 0];

internalField   nonuniform List<scalar> 
1875
(
0.000204873
0.000339815
0.00056209
0.000739104
0.000812556
0.000814026
0.000781923
0.000742312
0.000707727
0.000681606
0.000663223
0.000650685
0.000642139
0.000636068
0.000631566
0.000627956
0.000624791
0.000621724
0.000618488
0.000614867
0.000610689
0.00060584
0.000600294
0.000594174
0.000587818
0.000581825
0.000577043
0.000574446
0.000574918
0.000578974
0.00058655
0.000596873
0.000608635
0.000619775
0.000628614
0.000634783
0.000638419
0.000639936
0.00063994
0.000639043
0.000637743
0.000636343
0.00063501
0.000633804
0.000632731
0.00063178
0.000630934
0.000630183
0.000629518
0.000628935
0.00062843
0.000627996
0.000627628
0.000627319
0.000627062
0.000626849
0.000626676
0.000626533
0.000626418
0.000626325
0.000626251
0.000626191
0.000626143
0.000626105
0.000626075
0.000626052
0.000626034
0.000626019
0.000626008
0.000626
0.000625996
0.000625997
0.000626015
0.000626074
0.000626188
0.000164531
0.000199213
0.000261928
0.000332471
0.000390946
0.000423427
0.000435477
0.000434737
0.000427875
0.000419391
0.000411467
0.000404879
0.000399704
0.000395654
0.000392301
0.000389395
0.000386748
0.000384168
0.000381484
0.000378541
0.000375202
0.000371355
0.00036692
0.000361871
0.000356272
0.000350329
0.000344427
0.000339116
0.000335038
0.000332793
0.000332769
0.000334994
0.000339095
0.000344416
0.000350139
0.000355659
0.000360668
0.000365036
0.000368783
0.000372006
0.000374806
0.000377259
0.000379403
0.000381254
0.000382817
0.000384103
0.000385137
0.000385946
0.000386567
0.000387033
0.000387378
0.000387629
0.000387809
0.000387936
0.000388025
0.000388086
0.000388127
0.000388155
0.000388172
0.000388183
0.00038819
0.000388193
0.000388194
0.000388194
0.000388194
0.000388193
0.000388192
0.000388191
0.00038819
0.000388189
0.000388189
0.000388192
0.000388208
0.000388273
0.000388521
0.000150716
0.000157734
0.000172887
0.000192773
0.00021193
0.000225718
0.00023344
0.000236252
0.000235421
0.000232833
0.000229706
0.000226724
0.00022416
0.000222056
0.000220414
0.000219032
0.000217797
0.000216636
0.000215484
0.00021428
0.000212966
0.000211495
0.00020982
0.000207899
0.000205703
0.000203244
0.000200619
0.000198041
0.000195821
0.000194309
0.000193777
0.000194285
0.000195671
0.000197694
0.000200227
0.000202813
0.000205152
0.000207112
0.000208709
0.000210025
0.000211146
0.000212146
0.000213061
0.000213897
0.000214646
0.0002153
0.000215854
0.000216311
0.000216677
0.000216966
0.000217188
0.000217358
0.000217486
0.000217581
0.000217651
0.000217703
0.00021774
0.000217767
0.000217786
0.0002178
0.000217809
0.000217816
0.000217821
0.000217824
0.000217826
0.000217827
0.000217828
0.000217828
0.000217828
0.000217829
0.000217829
0.000217831
0.000217839
0.000217883
0.000218093
0.000146137
0.000144297
0.000145287
0.000148292
0.000152014
0.000154941
0.00015632
0.000156121
0.000154812
0.000153014
0.000151178
0.000149532
0.000148141
0.000147023
0.000146154
0.000145528
0.000145038
0.000144635
0.000144283
0.000143962
0.000143657
0.000143361
0.000143069
0.000142769
0.000142434
0.000142041
0.000141604
0.000141206
0.000140994
0.000141126
0.00014165
0.000142454
0.000143278
0.000144033
0.000144891
0.000145706
0.00014621
0.000146291
0.000146043
0.000145626
0.000145184
0.000144814
0.000144554
0.000144404
0.000144341
0.000144338
0.000144369
0.000144416
0.000144466
0.000144513
0.000144554
0.000144588
0.000144615
0.000144636
0.000144652
0.000144664
0.000144673
0.000144679
0.000144683
0.000144686
0.000144688
0.000144689
0.00014469
0.00014469
0.00014469
0.00014469
0.00014469
0.00014469
0.00014469
0.00014469
0.00014469
0.00014469
0.000144694
0.000144714
0.000144822
0.000144734
0.000139851
0.000136492
0.000134295
0.000132804
0.000131573
0.000130281
0.000128822
0.000127278
0.00012575
0.000124362
0.000123193
0.000122269
0.000121572
0.000121064
0.00012071
0.000120484
0.000120341
0.000120259
0.00012023
0.000120261
0.000120374
0.000120597
0.000120953
0.000121448
0.000122099
0.000122909
0.00012395
0.00012527
0.000126744
0.000127993
0.000128778
0.00012862
0.000128445
0.000128584
0.000128918
0.000129029
0.000128498
0.000127404
0.000126021
0.000124625
0.000123406
0.000122438
0.00012171
0.000121196
0.000120846
0.000120614
0.000120462
0.000120365
0.000120305
0.000120267
0.000120243
0.000120228
0.000120218
0.000120211
0.000120207
0.000120204
0.000120201
0.0001202
0.000120199
0.000120198
0.000120197
0.000120196
0.000120196
0.000120195
0.000120195
0.000120195
0.000120195
0.000120194
0.000120194
0.000120194
0.000120194
0.000120195
0.000120201
0.000120235
0.000144293
0.000138424
0.000133615
0.000129759
0.000126659
0.000124125
0.000121997
0.000120168
0.000118592
0.000117254
0.000116162
0.000115313
0.000114669
0.000114198
0.000113865
0.00011364
0.000113505
0.000113439
0.000113433
0.000113491
0.000113641
0.000113931
0.000114427
0.000115195
0.000116287
0.000117767
0.000119725
0.000122185
0.000124795
0.000126838
0.000127726
0.000127448
0.000127138
0.000126818
0.000126817
0.000126852
0.000126584
0.000126047
0.000124658
0.00012276
0.000120691
0.000118767
0.000117183
0.000115976
0.000115104
0.000114493
0.000114074
0.000113791
0.000113602
0.000113476
0.000113394
0.000113341
0.000113306
0.000113283
0.000113268
0.000113258
0.000113252
0.000113247
0.000113244
0.000113242
0.000113241
0.00011324
0.000113239
0.000113239
0.000113238
0.000113238
0.000113238
0.000113237
0.000113237
0.000113237
0.000113237
0.000113237
0.000113237
0.000113236
0.000113235
0.000144136
0.000137932
0.000132624
0.000128194
0.000124562
0.000121623
0.000119263
0.000117377
0.000115876
0.000114692
0.000113775
0.000113085
0.000112579
0.00011222
0.000111972
0.000111812
0.00011172
0.000111687
0.000111713
0.000111821
0.000112061
0.000112518
0.000113303
0.000114527
0.000116296
0.000118748
0.000122025
0.000125934
0.000129038
0.000130903
0.000130985
0.000129853
0.00012799
0.000127025
0.000127472
0.000128572
0.000129844
0.000130408
0.000127672
0.000124779
0.000122034
0.000119443
0.000117223
0.000115485
0.000114207
0.000113306
0.000112688
0.000112273
0.000111998
0.000111818
0.000111701
0.000111626
0.000111578
0.000111547
0.000111527
0.000111514
0.000111506
0.0001115
0.000111496
0.000111494
0.000111492
0.000111491
0.00011149
0.00011149
0.000111489
0.000111489
0.000111489
0.000111489
0.000111488
0.000111488
0.000111488
0.000111488
0.000111488
0.000111485
0.00011147
0.00014407
0.000137737
0.00013224
0.000127593
0.000123764
0.000120681
0.000118251
0.000116366
0.000114923
0.00011383
0.000113015
0.000112417
0.000111989
0.000111692
0.000111492
0.000111366
0.000111299
0.000111287
0.000111341
0.000111501
0.000111849
0.000112511
0.000113637
0.000115366
0.000117845
0.000121326
0.000125967
0.000131139
0.000134848
0.000133906
0.0001367
0.00015
0.00015
0.00015
0.00015
0.00015
0.000129192
0.000129743
0.000130745
0.000127534
0.000124314
0.000121267
0.00011856
0.000116359
0.000114696
0.000113503
0.000112676
0.000112118
0.000111748
0.000111508
0.000111353
0.000111255
0.000111193
0.000111154
0.00011113
0.000111115
0.000111105
0.000111099
0.000111095
0.000111093
0.000111091
0.00011109
0.000111089
0.000111088
0.000111088
0.000111087
0.000111087
0.000111087
0.000111087
0.000111087
0.000111087
0.000111087
0.000111086
0.000111083
0.000111064
0.000144038
0.000137648
0.000132067
0.000127325
0.00012341
0.000120269
0.000117813
0.000115935
0.000114524
0.00011348
0.000112719
0.000112174
0.000111791
0.000111529
0.000111357
0.000111252
0.000111201
0.000111206
0.000111289
0.000111509
0.000111983
0.000112878
0.00011437
0.000116618
0.000119843
0.000124542
0.000130686
0.000135506
0.000135318
0.000136196
0.00015
0.00015
0.00015
0.00015
0.00015
0.00015
0.00015
0.000127905
0.00012873
0.000128674
0.000125896
0.000122804
0.000119858
0.000117354
0.000115404
0.000113972
0.000112964
0.000112275
0.000111815
0.000111515
0.000111323
0.000111201
0.000111125
0.000111078
0.000111049
0.000111031
0.00011102
0.000111014
0.000111009
0.000111007
0.000111005
0.000111004
0.000111003
0.000111002
0.000111002
0.000111002
0.000111001
0.000111001
0.000111001
0.000111001
0.000111001
0.000111001
0.000111
0.000110996
0.000110977
0.000144021
0.000137601
0.000131979
0.000127188
0.00012323
0.00012006
0.000117593
0.000115719
0.000114326
0.000113309
0.000112577
0.000112061
0.000111703
0.000111462
0.000111306
0.000111214
0.000111175
0.000111194
0.000111304
0.000111587
0.000112196
0.000113343
0.00011524
0.000118066
0.00012206
0.000127954
0.000136468
0.000137511
0.00013953
0.00015
0.00015
0.00015
0.00015
0.00015
0.00015
0.00015
0.00015
0.00015
0.000127186
0.000127418
0.000126228
0.000123605
0.000120704
0.000118076
0.000115963
0.000114378
0.000113243
0.000112457
0.000111927
0.000111579
0.000111354
0.000111212
0.000111124
0.000111069
0.000111036
0.000111016
0.000111004
0.000110996
0.000110992
0.000110989
0.000110987
0.000110986
0.000110985
0.000110985
0.000110984
0.000110984
0.000110984
0.000110984
0.000110984
0.000110984
0.000110984
0.000110983
0.000110983
0.000110979
0.000110959
0.000144012
0.000137576
0.000131931
0.000127114
0.000123132
0.000119946
0.000117472
0.000115602
0.000114219
0.000113216
0.000112501
0.000112
0.000111657
0.000111428
0.000111281
0.000111197
0.000111164
0.000111194
0.000111326
0.000111663
0.000112401
0.000113813
0.00011617
0.000119713
0.000124976
0.000133359
0.000143731
0.000143605
0.00015
0.00015
0.00015
0.00015
0.00015
0.00015
0.00015
0.00015
0.00015
0.00015
0.00015
0.000126293
0.000125994
0.000123832
0.000121084
0.000118451
0.000116278
0.000114623
0.000113422
0.000112581
0.000112009
0.00011163
0.000111385
0.000111229
0.000111131
0.000111072
0.000111035
0.000111014
0.000111001
0.000110993
0.000110988
0.000110985
0.000110983
0.000110982
0.000110982
0.000110981
0.000110981
0.000110981
0.000110981
0.00011098
0.00011098
0.00011098
0.00011098
0.00011098
0.000110979
0.000110976
0.000110956
0.000144007
0.000137563
0.000131907
0.000127077
0.000123082
0.000119887
0.000117409
0.000115541
0.000114163
0.000113168
0.000112462
0.00011197
0.000111634
0.000111411
0.00011127
0.000111188
0.000111159
0.000111193
0.000111334
0.000111701
0.000112526
0.000114149
0.000116879
0.000121155
0.000128601
0.000142909
0.000157784
0.000153099
0.00015
0.00015
0.00015
0.00015
0.00015
0.00015
0.00015
0.00015
0.00015
0.00015
0.00015
0.000124839
0.000124849
0.000123326
0.000120944
0.000118463
0.000116344
0.0001147
0.000113491
0.000112635
0.000112048
0.000111656
0.0001114
0.000111238
0.000111136
0.000111073
0.000111036
0.000111013
0.000111
0.000110992
0.000110987
0.000110984
0.000110982
0.000110981
0.000110981
0.00011098
0.00011098
0.00011098
0.00011098
0.00011098
0.00011098
0.00011098
0.00011098
0.000110979
0.000110979
0.000110975
0.000110955
0.000144006
0.000137559
0.000131899
0.000127065
0.000123067
0.000119869
0.000117392
0.000115525
0.00011415
0.000113158
0.000112456
0.000111967
0.000111633
0.000111412
0.000111271
0.000111191
0.000111162
0.000111195
0.000111335
0.000111703
0.000112536
0.000114179
0.00011692
0.000121105
0.000127934
0.000140113
0.0001509
0.000149751
0.00015
0.00015
0.00015
0.00015
0.00015
0.00015
0.00015
0.00015
0.00015
0.00015
0.00015
0.000123917
0.000124082
0.000122859
0.000120702
0.000118347
0.000116295
0.000114685
0.000113492
0.000112641
0.000112055
0.000111661
0.000111404
0.00011124
0.000111137
0.000111074
0.000111035
0.000111013
0.000110999
0.000110991
0.000110986
0.000110984
0.000110982
0.000110981
0.000110981
0.00011098
0.00011098
0.00011098
0.00011098
0.00011098
0.00011098
0.00011098
0.000110979
0.000110979
0.000110979
0.000110975
0.000110955
0.000144007
0.000137563
0.000131907
0.000127077
0.000123084
0.00011989
0.000117416
0.000115551
0.000114177
0.000113185
0.000112481
0.00011199
0.000111654
0.00011143
0.000111287
0.000111204
0.000111173
0.000111205
0.000111345
0.000111713
0.000112541
0.000114164
0.000116891
0.000121172
0.000128664
0.000142996
0.000157947
0.000153439
0.00015
0.00015
0.00015
0.00015
0.00015
0.00015
0.00015
0.00015
0.00015
0.00015
0.00015
0.000124863
0.000124837
0.000123269
0.000120888
0.000118425
0.000116324
0.000114693
0.000113491
0.000112638
0.000112051
0.000111658
0.000111402
0.000111238
0.000111136
0.000111073
0.000111035
0.000111012
0.000110999
0.000110991
0.000110986
0.000110984
0.000110982
0.000110981
0.000110981
0.00011098
0.00011098
0.00011098
0.00011098
0.00011098
0.00011098
0.00011098
0.00011098
0.000110979
0.000110979
0.000110975
0.000110955
0.000144012
0.000137576
0.000131931
0.000127115
0.000123135
0.000119952
0.000117484
0.00011562
0.000114244
0.000113247
0.000112535
0.000112036
0.000111693
0.000111462
0.000111312
0.000111224
0.000111189
0.000111216
0.000111348
0.000111686
0.000112425
0.000113832
0.00011617
0.000119688
0.000124931
0.000133251
0.00014372
0.00014389
0.00015
0.00015
0.00015
0.00015
0.00015
0.00015
0.00015
0.00015
0.00015
0.00015
0.00015
0.000126391
0.000126018
0.000123805
0.000121059
0.000118446
0.00011629
0.000114645
0.000113445
0.000112602
0.000112025
0.000111641
0.000111391
0.000111231
0.000111132
0.000111071
0.000111034
0.000111012
0.000110999
0.000110991
0.000110987
0.000110984
0.000110982
0.000110981
0.000110981
0.00011098
0.00011098
0.00011098
0.00011098
0.00011098
0.00011098
0.00011098
0.00011098
0.00011098
0.000110979
0.000110975
0.000110955
0.000144021
0.000137601
0.000131979
0.000127189
0.000123234
0.000120069
0.000117608
0.000115743
0.000114359
0.000113349
0.000112622
0.000112108
0.000111749
0.000111506
0.000111346
0.00011125
0.000111207
0.000111224
0.000111333
0.000111616
0.000112223
0.000113361
0.000115237
0.00011803
0.000121995
0.000127891
0.000136533
0.000137738
0.000139568
0.00015
0.00015
0.00015
0.00015
0.00015
0.00015
0.00015
0.00015
0.00015
0.000127423
0.000127592
0.000126275
0.000123644
0.000120761
0.000118151
0.000116043
0.000114453
0.000113306
0.000112504
0.00011196
0.000111599
0.000111366
0.000111217
0.000111124
0.000111067
0.000111033
0.000111012
0.000110999
0.000110992
0.000110988
0.000110985
0.000110984
0.000110983
0.000110982
0.000110982
0.000110982
0.000110982
0.000110981
0.000110981
0.000110981
0.000110981
0.000110981
0.000110981
0.00011098
0.000110977
0.000110957
0.000144038
0.000137647
0.000132067
0.000127325
0.000123413
0.000120275
0.000117825
0.000115955
0.000114552
0.000113516
0.00011276
0.000112217
0.000111834
0.00011157
0.000111394
0.000111285
0.00011123
0.000111232
0.000111314
0.000111534
0.000112007
0.000112894
0.000114367
0.000116587
0.000119788
0.000124474
0.000130652
0.000135622
0.00013537
0.00013563
0.00015
0.00015
0.00015
0.00015
0.00015
0.00015
0.00015
0.000128357
0.000129057
0.000128811
0.000126008
0.000122946
0.000120023
0.000117524
0.00011556
0.000114103
0.000113063
0.000112344
0.000111859
0.000111539
0.000111332
0.000111201
0.000111118
0.000111068
0.000111037
0.000111018
0.000111007
0.000111001
0.000110997
0.000110994
0.000110993
0.000110992
0.000110991
0.000110991
0.000110991
0.00011099
0.00011099
0.00011099
0.00011099
0.00011099
0.00011099
0.00011099
0.000110989
0.000110986
0.000110965
0.00014407
0.000137738
0.00013224
0.000127591
0.000123757
0.00012067
0.000118236
0.000116349
0.000114908
0.000113819
0.000113009
0.000112415
0.000111989
0.000111692
0.000111491
0.000111363
0.000111293
0.000111279
0.000111333
0.000111493
0.000111841
0.000112498
0.00011361
0.000115314
0.000117769
0.000121225
0.000125831
0.000131035
0.000134843
0.000133778
0.000136178
0.00015
0.00015
0.00015
0.00015
0.00015
0.000129654
0.000130279
0.000131061
0.000127775
0.000124576
0.000121541
0.000118828
0.0001166
0.000114896
0.000113653
0.000112776
0.000112174
0.00011177
0.000111504
0.000111331
0.000111222
0.000111153
0.00011111
0.000111083
0.000111067
0.000111058
0.000111052
0.000111048
0.000111046
0.000111045
0.000111044
0.000111043
0.000111043
0.000111043
0.000111042
0.000111042
0.000111042
0.000111042
0.000111042
0.000111042
0.000111042
0.000111041
0.000111037
0.000111017
0.000144136
0.000137933
0.000132622
0.000128179
0.000124521
0.000121544
0.000119145
0.000117224
0.000115701
0.000114509
0.000113594
0.000112911
0.000112414
0.000112063
0.000111822
0.000111667
0.000111579
0.000111548
0.000111577
0.000111688
0.000111931
0.000112388
0.000113165
0.00011437
0.000116111
0.000118528
0.000121764
0.000125648
0.000128814
0.000130796
0.000130684
0.00012925
0.000127766
0.000127022
0.000127657
0.000128933
0.000130308
0.00013077
0.000127968
0.00012509
0.000122339
0.000119726
0.000117466
0.000115671
0.000114327
0.000113358
0.000112679
0.000112213
0.0001119
0.000111693
0.000111558
0.000111471
0.000111415
0.00011138
0.000111359
0.000111345
0.000111337
0.000111331
0.000111328
0.000111326
0.000111325
0.000111324
0.000111323
0.000111323
0.000111323
0.000111323
0.000111322
0.000111322
0.000111322
0.000111322
0.000111322
0.000111322
0.000111321
0.000111318
0.000111298
0.000144295
0.000138428
0.000133606
0.000129703
0.000126511
0.000123846
0.000121575
0.000119621
0.000117959
0.000116577
0.000115478
0.000114645
0.000114027
0.000113586
0.00011328
0.000113078
0.00011296
0.000112908
0.000112913
0.000112981
0.00011314
0.000113438
0.000113936
0.000114698
0.000115774
0.000117229
0.000119157
0.000121594
0.000124223
0.000126332
0.00012727
0.000127102
0.000126952
0.00012673
0.000126732
0.00012673
0.000126446
0.000125932
0.000124617
0.000122748
0.000120672
0.000118718
0.000117079
0.000115802
0.000114854
0.000114172
0.000113693
0.000113361
0.000113136
0.000112985
0.000112885
0.00011282
0.000112778
0.000112751
0.000112734
0.000112723
0.000112716
0.000112712
0.000112709
0.000112707
0.000112706
0.000112705
0.000112704
0.000112704
0.000112704
0.000112704
0.000112704
0.000112703
0.000112703
0.000112703
0.000112703
0.000112703
0.000112702
0.000112699
0.000112679
0.00014474
0.000139862
0.000136466
0.000134132
0.000132378
0.000130788
0.000129116
0.000127336
0.000125577
0.000123944
0.000122538
0.000121405
0.000120542
0.000119913
0.000119468
0.000119168
0.000118986
0.000118877
0.000118822
0.000118818
0.000118871
0.000119004
0.000119244
0.000119612
0.000120114
0.00012077
0.000121588
0.000122646
0.000124007
0.00012555
0.000126894
0.000127788
0.000127704
0.000127561
0.000127699
0.000128019
0.000128124
0.000127602
0.00012653
0.000125156
0.000123742
0.000122479
0.000121446
0.000120644
0.000120056
0.000119639
0.00011935
0.000119153
0.000119022
0.000118936
0.00011888
0.000118844
0.00011882
0.000118804
0.000118794
0.000118787
0.000118783
0.00011878
0.000118778
0.000118777
0.000118776
0.000118775
0.000118774
0.000118774
0.000118774
0.000118773
0.000118773
0.000118773
0.000118773
0.000118773
0.000118773
0.000118773
0.000118772
0.000118769
0.000118752
0.000146154
0.000144329
0.000145226
0.000147896
0.000151002
0.000153132
0.000153727
0.000152917
0.000151234
0.000149283
0.000147451
0.000145896
0.000144628
0.000143636
0.00014288
0.000142345
0.000141929
0.000141584
0.000141281
0.000141002
0.000140734
0.000140473
0.000140214
0.000139944
0.000139641
0.000139282
0.00013889
0.00013855
0.000138418
0.000138647
0.000139282
0.000140191
0.000141091
0.000141875
0.000142737
0.00014353
0.000144006
0.000144062
0.000143788
0.000143333
0.000142837
0.0001424
0.000142065
0.000141838
0.000141703
0.000141633
0.000141608
0.000141608
0.000141622
0.00014164
0.00014166
0.000141678
0.000141693
0.000141706
0.000141716
0.000141724
0.00014173
0.000141734
0.000141737
0.000141739
0.000141741
0.000141742
0.000141742
0.000141743
0.000141743
0.000141743
0.000141743
0.000141743
0.000141743
0.000141743
0.000141743
0.000141743
0.000141742
0.000141742
0.000141737
0.000150751
0.000157803
0.000172764
0.000191977
0.000209969
0.00022239
0.000228937
0.000230977
0.000229795
0.000227169
0.00022418
0.000221404
0.000219052
0.000217132
0.000215639
0.000214371
0.000213223
0.000212129
0.000211029
0.000209865
0.000208585
0.000207142
0.000205492
0.000203595
0.000201424
0.000198994
0.000196411
0.00019389
0.000191741
0.000190313
0.000189866
0.000190447
0.00019188
0.000193919
0.000196446
0.000199002
0.000201309
0.000203245
0.000204823
0.000206118
0.000207212
0.000208176
0.000209047
0.000209834
0.000210535
0.000211141
0.000211653
0.000212074
0.000212412
0.000212677
0.000212882
0.000213038
0.000213156
0.000213245
0.00021331
0.000213358
0.000213394
0.000213419
0.000213438
0.000213451
0.00021346
0.000213467
0.000213472
0.000213475
0.000213477
0.000213478
0.000213479
0.00021348
0.00021348
0.00021348
0.000213481
0.000213481
0.000213483
0.000213493
0.000213528
0.000164573
0.000199294
0.00026168
0.000331145
0.00038799
0.000418892
0.000429908
0.000428767
0.000421963
0.000413767
0.000406189
0.000399915
0.000394991
0.000391127
0.000387902
0.000385084
0.000382495
0.000379952
0.000377288
0.000374354
0.000371014
0.000367158
0.000362707
0.000357637
0.000352015
0.000346051
0.000340132
0.000334811
0.000330725
0.000328468
0.000328419
0.0003306
0.000334638
0.000339884
0.00034554
0.000351022
0.00035604
0.000360458
0.000364283
0.000367592
0.000370476
0.000372998
0.000375196
0.000377085
0.000378674
0.000379978
0.000381023
0.000381841
0.000382469
0.00038294
0.00038329
0.000383545
0.000383729
0.00038386
0.000383953
0.000384017
0.000384061
0.000384091
0.00038411
0.000384123
0.000384131
0.000384135
0.000384137
0.000384138
0.000384138
0.000384138
0.000384137
0.000384136
0.000384135
0.000384134
0.000384134
0.000384136
0.000384147
0.00038419
0.000384348
0.000204827
0.000339559
0.000561186
0.000737037
0.000809282
0.00080995
0.000777533
0.000737962
0.000703586
0.000677708
0.000659539
0.000647166
0.000638739
0.000632747
0.000628301
0.000624727
0.000621584
0.000618531
0.000615302
0.000611685
0.00060751
0.000602664
0.000597126
0.000591022
0.000584694
0.000578744
0.000574018
0.000571483
0.000572015
0.000576118
0.000583724
0.00059406
0.000605823
0.00061695
0.000625762
0.000631912
0.000635531
0.000637027
0.000637007
0.000636083
0.000634755
0.000633327
0.000631966
0.000630737
0.000629645
0.000628678
0.000627822
0.000627062
0.000626392
0.000625806
0.000625299
0.000624864
0.000624496
0.000624187
0.000623931
0.00062372
0.000623547
0.000623406
0.000623292
0.000623199
0.000623125
0.000623065
0.000623018
0.00062298
0.00062295
0.000622926
0.000622907
0.000622892
0.00062288
0.000622872
0.000622866
0.000622869
0.000622897
0.00062302
0.000623421
)
;

boundaryField
{
    ibCylinder
    {
        type            immersedBoundaryKqRWallFunction;
        patchType       immersedBoundary;
        setDeadValue    true;
        deadValue       0.00015;
        value           nonuniform List<scalar> 0();
    }
    in
    {
        type            fixedValue;
        value           uniform 0.00015;
    }
    out
    {
        type            inletOutlet;
        inletValue      uniform 0.00015;
        value           nonuniform List<scalar> 
25
(
0.000626188
0.000388521
0.000218093
0.000144822
0.000120235
0.000113235
0.00011147
0.000111064
0.000110977
0.000110959
0.000110956
0.000110955
0.000110955
0.000110955
0.000110955
0.000110957
0.000110965
0.000111017
0.000111298
0.000112679
0.000118752
0.000141737
0.000213528
0.000384348
0.000623421
)
;
    }
    top
    {
        type            zeroGradient;
    }
    bottom
    {
        type            zeroGradient;
    }
    frontAndBack
    {
        type            empty;
    }
}


// ************************************************************************* //
