/*--------------------------------*- C++ -*----------------------------------*\
| =========                 |                                                 |
| \\      /  F ield         | OpenFOAM: The Open Source CFD Toolbox           |
|  \\    /   O peration     | Version:  2206                                  |
|   \\  /    A nd           | Website:  www.openfoam.com                      |
|    \\/     M anipulation  |                                                 |
\*---------------------------------------------------------------------------*/
FoamFile
{
    version     2.0;
    format      ascii;
    arch        "LSB;label=32;scalar=64";
    class       volScalarField;
    location    "0.3";
    object      nut;
}
// * * * * * * * * * * * * * * * * * * * * * * * * * * * * * * * * * * * * * //

dimensions      [0 2 -1 0 0 0 0];

internalField   nonuniform List<scalar> 
1875
(
1.1603e-05
1.49373e-05
2.04102e-05
2.51589e-05
2.76783e-05
2.84407e-05
2.82407e-05
2.76886e-05
2.71166e-05
2.66486e-05
2.63018e-05
2.60555e-05
2.58813e-05
2.57518e-05
2.5652e-05
2.55691e-05
2.54944e-05
2.54206e-05
2.53417e-05
2.52528e-05
2.51496e-05
2.50293e-05
2.48912e-05
2.47381e-05
2.45786e-05
2.44275e-05
2.43059e-05
2.42375e-05
2.42434e-05
2.43351e-05
2.45096e-05
2.47474e-05
2.50169e-05
2.52683e-05
2.54616e-05
2.55953e-05
2.5676e-05
2.57145e-05
2.57241e-05
2.57171e-05
2.57031e-05
2.56871e-05
2.56717e-05
2.56577e-05
2.56448e-05
2.56327e-05
2.56213e-05
2.56105e-05
2.56005e-05
2.55912e-05
2.55829e-05
2.55756e-05
2.55692e-05
2.55637e-05
2.55591e-05
2.55552e-05
2.5552e-05
2.55493e-05
2.55472e-05
2.55454e-05
2.5544e-05
2.55428e-05
2.55419e-05
2.55411e-05
2.55406e-05
2.55401e-05
2.55397e-05
2.55395e-05
2.55392e-05
2.55391e-05
2.5539e-05
2.55391e-05
2.55397e-05
2.55416e-05
2.55454e-05
1.05805e-05
1.12018e-05
1.25008e-05
1.43851e-05
1.62417e-05
1.7513e-05
1.82288e-05
1.85409e-05
1.86127e-05
1.85703e-05
1.84857e-05
1.83947e-05
1.83123e-05
1.82409e-05
1.81753e-05
1.8114e-05
1.80559e-05
1.79979e-05
1.7937e-05
1.78699e-05
1.77933e-05
1.77043e-05
1.76004e-05
1.74799e-05
1.73432e-05
1.71941e-05
1.70413e-05
1.68987e-05
1.67837e-05
1.67135e-05
1.67e-05
1.67449e-05
1.68389e-05
1.69642e-05
1.70964e-05
1.72232e-05
1.73396e-05
1.74438e-05
1.75367e-05
1.76202e-05
1.76957e-05
1.77641e-05
1.78252e-05
1.78788e-05
1.79245e-05
1.79626e-05
1.79934e-05
1.80178e-05
1.80368e-05
1.80514e-05
1.80624e-05
1.80706e-05
1.80768e-05
1.80813e-05
1.80846e-05
1.8087e-05
1.80887e-05
1.809e-05
1.80909e-05
1.80915e-05
1.8092e-05
1.80923e-05
1.80925e-05
1.80926e-05
1.80927e-05
1.80928e-05
1.80928e-05
1.80929e-05
1.80929e-05
1.80929e-05
1.80929e-05
1.80931e-05
1.80936e-05
1.80958e-05
1.81046e-05
1.02692e-05
1.04154e-05
1.05745e-05
1.08992e-05
1.13626e-05
1.18132e-05
1.21636e-05
1.23983e-05
1.25227e-05
1.25779e-05
1.25943e-05
1.2592e-05
1.25818e-05
1.25688e-05
1.25573e-05
1.25452e-05
1.25324e-05
1.25197e-05
1.25072e-05
1.24948e-05
1.24821e-05
1.24687e-05
1.2454e-05
1.2437e-05
1.24165e-05
1.23912e-05
1.23624e-05
1.23341e-05
1.23133e-05
1.23082e-05
1.23233e-05
1.23558e-05
1.23978e-05
1.24415e-05
1.24816e-05
1.25084e-05
1.25182e-05
1.25134e-05
1.25006e-05
1.24863e-05
1.2475e-05
1.2469e-05
1.24685e-05
1.24721e-05
1.24784e-05
1.24859e-05
1.24934e-05
1.25004e-05
1.25064e-05
1.25114e-05
1.25156e-05
1.25188e-05
1.25214e-05
1.25235e-05
1.2525e-05
1.25262e-05
1.25271e-05
1.25278e-05
1.25284e-05
1.25288e-05
1.25291e-05
1.25293e-05
1.25295e-05
1.25296e-05
1.25297e-05
1.25297e-05
1.25298e-05
1.25298e-05
1.25298e-05
1.25299e-05
1.25299e-05
1.25299e-05
1.25302e-05
1.25315e-05
1.25379e-05
1.01474e-05
1.01962e-05
1.02137e-05
1.02059e-05
1.02138e-05
1.02467e-05
1.02878e-05
1.03219e-05
1.0348e-05
1.0371e-05
1.03937e-05
1.04155e-05
1.04342e-05
1.04499e-05
1.04629e-05
1.04745e-05
1.04846e-05
1.04942e-05
1.05043e-05
1.05163e-05
1.05316e-05
1.05527e-05
1.05828e-05
1.06256e-05
1.06843e-05
1.07612e-05
1.08574e-05
1.09738e-05
1.11089e-05
1.12537e-05
1.1385e-05
1.14748e-05
1.15145e-05
1.15189e-05
1.15022e-05
1.14548e-05
1.13646e-05
1.12371e-05
1.10929e-05
1.09522e-05
1.08291e-05
1.07299e-05
1.06547e-05
1.06004e-05
1.05625e-05
1.05367e-05
1.05195e-05
1.05081e-05
1.05007e-05
1.04958e-05
1.04926e-05
1.04905e-05
1.04892e-05
1.04883e-05
1.04878e-05
1.04875e-05
1.04873e-05
1.04872e-05
1.04871e-05
1.04871e-05
1.04871e-05
1.04871e-05
1.04871e-05
1.04871e-05
1.04871e-05
1.04871e-05
1.04871e-05
1.04871e-05
1.04872e-05
1.04872e-05
1.04872e-05
1.04872e-05
1.04872e-05
1.04876e-05
1.04896e-05
1.01022e-05
1.00967e-05
1.01e-05
1.0091e-05
1.00684e-05
1.00428e-05
1.00217e-05
1.00092e-05
1.00073e-05
1.00126e-05
1.00231e-05
1.00364e-05
1.00506e-05
1.00643e-05
1.00767e-05
1.00877e-05
1.00975e-05
1.0107e-05
1.01171e-05
1.013e-05
1.01494e-05
1.01824e-05
1.02404e-05
1.03382e-05
1.04923e-05
1.07192e-05
1.103e-05
1.14312e-05
1.19093e-05
1.24002e-05
1.27704e-05
1.28605e-05
1.27275e-05
1.25929e-05
1.25452e-05
1.24899e-05
1.23193e-05
1.20155e-05
1.16484e-05
1.12855e-05
1.09674e-05
1.0712e-05
1.05199e-05
1.03818e-05
1.02864e-05
1.02226e-05
1.01808e-05
1.01539e-05
1.01368e-05
1.01261e-05
1.01195e-05
1.01153e-05
1.01127e-05
1.01111e-05
1.011e-05
1.01094e-05
1.0109e-05
1.01087e-05
1.01086e-05
1.01085e-05
1.01084e-05
1.01084e-05
1.01083e-05
1.01083e-05
1.01083e-05
1.01083e-05
1.01083e-05
1.01084e-05
1.01084e-05
1.01084e-05
1.01084e-05
1.01084e-05
1.01084e-05
1.01084e-05
1.01085e-05
1.00856e-05
1.00535e-05
1.00389e-05
1.00337e-05
1.00306e-05
1.00272e-05
1.00243e-05
1.00232e-05
1.00246e-05
1.00281e-05
1.00335e-05
1.00401e-05
1.00466e-05
1.00525e-05
1.00577e-05
1.00625e-05
1.00671e-05
1.00722e-05
1.00795e-05
1.00928e-05
1.01206e-05
1.01799e-05
1.02983e-05
1.05141e-05
1.08733e-05
1.14304e-05
1.22463e-05
1.33791e-05
1.48296e-05
1.64203e-05
1.78472e-05
1.73867e-05
1.60067e-05
1.51325e-05
1.54192e-05
1.59835e-05
1.58531e-05
1.48968e-05
1.37633e-05
1.27804e-05
1.19853e-05
1.13797e-05
1.0941e-05
1.06357e-05
1.04299e-05
1.0295e-05
1.02085e-05
1.01543e-05
1.01208e-05
1.01005e-05
1.00884e-05
1.00812e-05
1.0077e-05
1.00746e-05
1.00732e-05
1.00723e-05
1.00719e-05
1.00716e-05
1.00714e-05
1.00714e-05
1.00713e-05
1.00713e-05
1.00713e-05
1.00713e-05
1.00713e-05
1.00713e-05
1.00713e-05
1.00713e-05
1.00713e-05
1.00713e-05
1.00713e-05
1.00713e-05
1.00713e-05
1.00713e-05
1.00712e-05
1.00791e-05
1.00352e-05
1.00085e-05
9.99765e-06
9.99825e-06
1.00058e-05
1.00166e-05
1.00278e-05
1.00379e-05
1.00461e-05
1.00522e-05
1.00567e-05
1.006e-05
1.00623e-05
1.00641e-05
1.00659e-05
1.00682e-05
1.0072e-05
1.00804e-05
1.01012e-05
1.01521e-05
1.0267e-05
1.04998e-05
1.09262e-05
1.16487e-05
1.28179e-05
1.46436e-05
1.7461e-05
2.17521e-05
2.75047e-05
5.27811e-05
3.11409e-05
1.84695e-05
1.40907e-05
1.78685e-05
2.96554e-05
5.00576e-05
2.56571e-05
1.93093e-05
1.59901e-05
1.39349e-05
1.25893e-05
1.16944e-05
1.1102e-05
1.07148e-05
1.0466e-05
1.03087e-05
1.02112e-05
1.01517e-05
1.01161e-05
1.00952e-05
1.0083e-05
1.0076e-05
1.00721e-05
1.00699e-05
1.00687e-05
1.0068e-05
1.00677e-05
1.00675e-05
1.00674e-05
1.00673e-05
1.00673e-05
1.00673e-05
1.00672e-05
1.00672e-05
1.00672e-05
1.00672e-05
1.00672e-05
1.00672e-05
1.00672e-05
1.00672e-05
1.00672e-05
1.00672e-05
1.00672e-05
1.00672e-05
1.00762e-05
1.00271e-05
9.99413e-06
9.97831e-06
9.97733e-06
9.98688e-06
1.00021e-05
1.00187e-05
1.00338e-05
1.00456e-05
1.00541e-05
1.00597e-05
1.00631e-05
1.00652e-05
1.00666e-05
1.00678e-05
1.00699e-05
1.00747e-05
1.0088e-05
1.01242e-05
1.02147e-05
1.04156e-05
1.08125e-05
1.15275e-05
1.27492e-05
1.48004e-05
1.81199e-05
2.36788e-05
3.5329e-05
3.42167e-05
1.03135e-05
1e-06
1e-06
1e-06
1e-06
1e-06
1.04737e-05
3.2232e-05
2.67387e-05
2.05706e-05
1.66e-05
1.41702e-05
1.26559e-05
1.16932e-05
1.10784e-05
1.06879e-05
1.04424e-05
1.02903e-05
1.01976e-05
1.0142e-05
1.01093e-05
1.00904e-05
1.00796e-05
1.00735e-05
1.00702e-05
1.00683e-05
1.00673e-05
1.00668e-05
1.00665e-05
1.00664e-05
1.00663e-05
1.00663e-05
1.00663e-05
1.00662e-05
1.00662e-05
1.00662e-05
1.00662e-05
1.00662e-05
1.00662e-05
1.00662e-05
1.00662e-05
1.00662e-05
1.00662e-05
1.00662e-05
1.00662e-05
1.00748e-05
1.00232e-05
9.98707e-06
9.96828e-06
9.96555e-06
9.97493e-06
9.99131e-06
1.00098e-05
1.0027e-05
1.0041e-05
1.00511e-05
1.0058e-05
1.00623e-05
1.00649e-05
1.00667e-05
1.00683e-05
1.0071e-05
1.00784e-05
1.00996e-05
1.01579e-05
1.03013e-05
1.06101e-05
1.12001e-05
1.22464e-05
1.40591e-05
1.7208e-05
2.19158e-05
2.75645e-05
3.44928e-05
4.18098e-06
1e-06
1e-06
1e-06
1e-06
1e-06
1e-06
1e-06
3.56919e-06
3.20249e-05
2.65078e-05
1.98106e-05
1.58955e-05
1.36587e-05
1.23009e-05
1.14533e-05
1.09196e-05
1.05847e-05
1.03765e-05
1.0249e-05
1.01721e-05
1.01265e-05
1.01e-05
1.00848e-05
1.00762e-05
1.00715e-05
1.00689e-05
1.00675e-05
1.00668e-05
1.00664e-05
1.00662e-05
1.00661e-05
1.0066e-05
1.0066e-05
1.0066e-05
1.0066e-05
1.0066e-05
1.0066e-05
1.0066e-05
1.0066e-05
1.0066e-05
1.0066e-05
1.0066e-05
1.0066e-05
1.0066e-05
1.00659e-05
1.00741e-05
1.00211e-05
9.98337e-06
9.96293e-06
9.95902e-06
9.96801e-06
9.98468e-06
1.0004e-05
1.00221e-05
1.00371e-05
1.00483e-05
1.00559e-05
1.00609e-05
1.00641e-05
1.00662e-05
1.00683e-05
1.00721e-05
1.00824e-05
1.0113e-05
1.01963e-05
1.0397e-05
1.08184e-05
1.1605e-05
1.2975e-05
1.53213e-05
1.96076e-05
2.8287e-05
5.48537e-05
1.106e-05
1e-06
1e-06
1e-06
1e-06
1e-06
1e-06
1e-06
1e-06
1e-06
1.01005e-05
4.95263e-05
2.37986e-05
1.74719e-05
1.44878e-05
1.27929e-05
1.17596e-05
1.11132e-05
1.07067e-05
1.04526e-05
1.02956e-05
1.02001e-05
1.0143e-05
1.01095e-05
1.00901e-05
1.00792e-05
1.00731e-05
1.00697e-05
1.00679e-05
1.00669e-05
1.00664e-05
1.00662e-05
1.0066e-05
1.0066e-05
1.00659e-05
1.00659e-05
1.00659e-05
1.00659e-05
1.00659e-05
1.00659e-05
1.00659e-05
1.00659e-05
1.00659e-05
1.00659e-05
1.00659e-05
1.00659e-05
1.00658e-05
1.00736e-05
1.002e-05
9.98135e-06
9.96e-06
9.95541e-06
9.96409e-06
9.98085e-06
1.00005e-05
1.00192e-05
1.00347e-05
1.00464e-05
1.00545e-05
1.00599e-05
1.00634e-05
1.00658e-05
1.00682e-05
1.00728e-05
1.00858e-05
1.01242e-05
1.02283e-05
1.04765e-05
1.09914e-05
1.19398e-05
1.35638e-05
1.62369e-05
2.07478e-05
2.70994e-05
3.28959e-05
1e-06
1e-06
1e-06
1e-06
1e-06
1e-06
1e-06
1e-06
1e-06
1e-06
1e-06
2.90224e-05
2.37823e-05
1.8193e-05
1.49655e-05
1.30921e-05
1.19518e-05
1.12387e-05
1.07886e-05
1.05054e-05
1.0329e-05
1.02208e-05
1.01556e-05
1.0117e-05
1.00945e-05
1.00817e-05
1.00745e-05
1.00705e-05
1.00683e-05
1.00672e-05
1.00665e-05
1.00662e-05
1.00661e-05
1.0066e-05
1.00659e-05
1.00659e-05
1.00659e-05
1.00659e-05
1.00659e-05
1.00659e-05
1.00659e-05
1.00659e-05
1.00659e-05
1.00659e-05
1.00659e-05
1.00659e-05
1.00658e-05
1.00734e-05
1.00195e-05
9.98033e-06
9.95851e-06
9.95356e-06
9.96207e-06
9.97887e-06
9.99871e-06
1.00176e-05
1.00334e-05
1.00453e-05
1.00537e-05
1.00593e-05
1.0063e-05
1.00655e-05
1.00681e-05
1.0073e-05
1.00869e-05
1.0128e-05
1.02403e-05
1.05107e-05
1.10736e-05
1.21e-05
1.3905e-05
1.72937e-05
2.42428e-05
3.57847e-05
2.19518e-05
1e-06
1e-06
1e-06
1e-06
1e-06
1e-06
1e-06
1e-06
1e-06
1e-06
1e-06
1.69742e-05
1.91468e-05
1.69606e-05
1.46547e-05
1.30395e-05
1.19711e-05
1.12726e-05
1.08196e-05
1.05292e-05
1.03458e-05
1.0232e-05
1.01628e-05
1.01214e-05
1.00972e-05
1.00833e-05
1.00754e-05
1.0071e-05
1.00686e-05
1.00673e-05
1.00666e-05
1.00663e-05
1.00661e-05
1.0066e-05
1.00659e-05
1.00659e-05
1.00659e-05
1.00659e-05
1.00659e-05
1.00659e-05
1.00659e-05
1.00659e-05
1.00659e-05
1.00659e-05
1.00659e-05
1.00659e-05
1.00658e-05
1.00734e-05
1.00193e-05
9.98001e-06
9.95805e-06
9.953e-06
9.96147e-06
9.97828e-06
9.99818e-06
1.00172e-05
1.0033e-05
1.0045e-05
1.00535e-05
1.00591e-05
1.00628e-05
1.00654e-05
1.0068e-05
1.00729e-05
1.00866e-05
1.01271e-05
1.02384e-05
1.05081e-05
1.10676e-05
1.2075e-05
1.38396e-05
1.71204e-05
2.35439e-05
3.22437e-05
1.66261e-05
1e-06
1e-06
1e-06
1e-06
1e-06
1e-06
1e-06
1e-06
1e-06
1e-06
1e-06
1.28395e-05
1.65676e-05
1.59364e-05
1.42704e-05
1.28943e-05
1.19188e-05
1.12569e-05
1.08178e-05
1.0532e-05
1.03495e-05
1.02353e-05
1.01652e-05
1.01231e-05
1.00983e-05
1.0084e-05
1.00758e-05
1.00713e-05
1.00688e-05
1.00674e-05
1.00667e-05
1.00663e-05
1.00661e-05
1.0066e-05
1.00659e-05
1.00659e-05
1.00659e-05
1.00659e-05
1.00659e-05
1.00659e-05
1.00659e-05
1.00659e-05
1.00659e-05
1.00659e-05
1.00659e-05
1.00659e-05
1.00658e-05
1.00734e-05
1.00194e-05
9.98033e-06
9.95852e-06
9.9536e-06
9.96215e-06
9.97897e-06
9.99883e-06
1.00177e-05
1.00335e-05
1.00454e-05
1.00537e-05
1.00593e-05
1.00629e-05
1.00655e-05
1.0068e-05
1.0073e-05
1.00868e-05
1.0128e-05
1.02406e-05
1.05113e-05
1.10731e-05
1.20968e-05
1.39055e-05
1.73092e-05
2.42541e-05
3.57596e-05
2.20494e-05
1e-06
1e-06
1e-06
1e-06
1e-06
1e-06
1e-06
1e-06
1e-06
1e-06
1e-06
1.69787e-05
1.90839e-05
1.68123e-05
1.45573e-05
1.29874e-05
1.19471e-05
1.1264e-05
1.08186e-05
1.05313e-05
1.03488e-05
1.02348e-05
1.0165e-05
1.01231e-05
1.00983e-05
1.0084e-05
1.00759e-05
1.00713e-05
1.00688e-05
1.00674e-05
1.00667e-05
1.00663e-05
1.00661e-05
1.0066e-05
1.00659e-05
1.00659e-05
1.00659e-05
1.00659e-05
1.00659e-05
1.00659e-05
1.00659e-05
1.00659e-05
1.00659e-05
1.00659e-05
1.00659e-05
1.00659e-05
1.00658e-05
1.00736e-05
1.002e-05
9.98135e-06
9.96002e-06
9.95548e-06
9.96422e-06
9.98103e-06
1.00007e-05
1.00193e-05
1.00348e-05
1.00464e-05
1.00545e-05
1.00598e-05
1.00633e-05
1.00657e-05
1.00681e-05
1.00728e-05
1.00859e-05
1.01245e-05
1.02289e-05
1.04762e-05
1.09862e-05
1.19225e-05
1.35291e-05
1.61797e-05
2.06489e-05
2.70013e-05
3.30491e-05
1e-06
1e-06
1e-06
1e-06
1e-06
1e-06
1e-06
1e-06
1e-06
1e-06
1e-06
2.9034e-05
2.3685e-05
1.8012e-05
1.48793e-05
1.30603e-05
1.19472e-05
1.12463e-05
1.08004e-05
1.05173e-05
1.03392e-05
1.02287e-05
1.01613e-05
1.01209e-05
1.00971e-05
1.00833e-05
1.00755e-05
1.00711e-05
1.00687e-05
1.00674e-05
1.00667e-05
1.00663e-05
1.00661e-05
1.0066e-05
1.00659e-05
1.00659e-05
1.00659e-05
1.00659e-05
1.00659e-05
1.00659e-05
1.00659e-05
1.00659e-05
1.00659e-05
1.00659e-05
1.00659e-05
1.00659e-05
1.00658e-05
1.0074e-05
1.00211e-05
9.98336e-06
9.96295e-06
9.9591e-06
9.96814e-06
9.98486e-06
1.00042e-05
1.00223e-05
1.00372e-05
1.00482e-05
1.00558e-05
1.00608e-05
1.00639e-05
1.0066e-05
1.00681e-05
1.0072e-05
1.00827e-05
1.01136e-05
1.01971e-05
1.03959e-05
1.08096e-05
1.1578e-05
1.29139e-05
1.52088e-05
1.94468e-05
2.81062e-05
5.48466e-05
1.10661e-05
1e-06
1e-06
1e-06
1e-06
1e-06
1e-06
1e-06
1e-06
1e-06
1.01145e-05
4.95844e-05
2.36954e-05
1.74195e-05
1.44935e-05
1.28239e-05
1.17986e-05
1.11512e-05
1.07395e-05
1.04787e-05
1.03152e-05
1.02141e-05
1.01527e-05
1.01159e-05
1.00943e-05
1.00818e-05
1.00747e-05
1.00707e-05
1.00685e-05
1.00673e-05
1.00666e-05
1.00663e-05
1.00661e-05
1.0066e-05
1.00659e-05
1.00659e-05
1.00659e-05
1.00659e-05
1.00659e-05
1.00659e-05
1.00659e-05
1.00659e-05
1.00659e-05
1.00659e-05
1.00659e-05
1.00659e-05
1.00658e-05
1.00748e-05
1.00232e-05
9.98706e-06
9.96828e-06
9.96556e-06
9.97498e-06
9.99139e-06
1.00099e-05
1.00271e-05
1.0041e-05
1.00511e-05
1.00579e-05
1.00621e-05
1.00647e-05
1.00665e-05
1.00681e-05
1.0071e-05
1.00785e-05
1.01002e-05
1.01589e-05
1.03007e-05
1.06021e-05
1.1174e-05
1.21872e-05
1.39477e-05
1.70146e-05
2.1574e-05
2.71424e-05
3.45249e-05
4.14628e-06
1e-06
1e-06
1e-06
1e-06
1e-06
1e-06
1e-06
3.58227e-06
3.20818e-05
2.65518e-05
1.97984e-05
1.59745e-05
1.37534e-05
1.2393e-05
1.15346e-05
1.09867e-05
1.06371e-05
1.04156e-05
1.02769e-05
1.01913e-05
1.01393e-05
1.01082e-05
1.009e-05
1.00794e-05
1.00734e-05
1.007e-05
1.00681e-05
1.00671e-05
1.00665e-05
1.00662e-05
1.00661e-05
1.0066e-05
1.0066e-05
1.00659e-05
1.00659e-05
1.00659e-05
1.00659e-05
1.00659e-05
1.00659e-05
1.00659e-05
1.00659e-05
1.00659e-05
1.00659e-05
1.00659e-05
1.00658e-05
1.00762e-05
1.00271e-05
9.9941e-06
9.97819e-06
9.97713e-06
9.98668e-06
1.0002e-05
1.00188e-05
1.0034e-05
1.0046e-05
1.00544e-05
1.006e-05
1.00633e-05
1.00653e-05
1.00666e-05
1.00678e-05
1.00698e-05
1.00748e-05
1.00885e-05
1.01252e-05
1.0215e-05
1.0411e-05
1.07941e-05
1.14822e-05
1.26581e-05
1.46258e-05
1.78032e-05
2.32327e-05
3.49272e-05
3.42275e-05
1.02349e-05
1e-06
1e-06
1e-06
1e-06
1e-06
1.04923e-05
3.23555e-05
2.68895e-05
2.06295e-05
1.67288e-05
1.43327e-05
1.28132e-05
1.18301e-05
1.11902e-05
1.07746e-05
1.05069e-05
1.03365e-05
1.02295e-05
1.01634e-05
1.01232e-05
1.00991e-05
1.00849e-05
1.00767e-05
1.0072e-05
1.00693e-05
1.00678e-05
1.0067e-05
1.00666e-05
1.00663e-05
1.00662e-05
1.00661e-05
1.00661e-05
1.00661e-05
1.0066e-05
1.0066e-05
1.0066e-05
1.0066e-05
1.0066e-05
1.0066e-05
1.0066e-05
1.0066e-05
1.0066e-05
1.0066e-05
1.0066e-05
1.00791e-05
1.00352e-05
1.00084e-05
9.99725e-06
9.99772e-06
1.00055e-05
1.00169e-05
1.0029e-05
1.00398e-05
1.00485e-05
1.00547e-05
1.0059e-05
1.00619e-05
1.00638e-05
1.00652e-05
1.00666e-05
1.00685e-05
1.00722e-05
1.00806e-05
1.01017e-05
1.01527e-05
1.02654e-05
1.04905e-05
1.08991e-05
1.15885e-05
1.27019e-05
1.44395e-05
1.71318e-05
2.1228e-05
2.68178e-05
5.27747e-05
3.09116e-05
1.83983e-05
1.40593e-05
1.78444e-05
2.96543e-05
5.01444e-05
2.59009e-05
1.94914e-05
1.62062e-05
1.41668e-05
1.28071e-05
1.18825e-05
1.12554e-05
1.08343e-05
1.05553e-05
1.03731e-05
1.02559e-05
1.01818e-05
1.01357e-05
1.01075e-05
1.00905e-05
1.00804e-05
1.00745e-05
1.00711e-05
1.00691e-05
1.0068e-05
1.00674e-05
1.00671e-05
1.00669e-05
1.00668e-05
1.00667e-05
1.00667e-05
1.00667e-05
1.00667e-05
1.00667e-05
1.00667e-05
1.00667e-05
1.00667e-05
1.00667e-05
1.00667e-05
1.00667e-05
1.00667e-05
1.00667e-05
1.00666e-05
1.00857e-05
1.00534e-05
1.00385e-05
1.0033e-05
1.00303e-05
1.00285e-05
1.00279e-05
1.00291e-05
1.00323e-05
1.00366e-05
1.00418e-05
1.00476e-05
1.00528e-05
1.00572e-05
1.00611e-05
1.00647e-05
1.00683e-05
1.00726e-05
1.00794e-05
1.00924e-05
1.01202e-05
1.01788e-05
1.02941e-05
1.05011e-05
1.08424e-05
1.13694e-05
1.214e-05
1.32143e-05
1.46024e-05
1.61277e-05
1.7518e-05
1.71971e-05
1.59262e-05
1.51019e-05
1.54122e-05
1.6008e-05
1.59274e-05
1.50278e-05
1.39785e-05
1.30132e-05
1.22082e-05
1.15775e-05
1.11064e-05
1.07671e-05
1.05298e-05
1.03678e-05
1.02597e-05
1.01888e-05
1.01433e-05
1.01145e-05
1.00966e-05
1.00857e-05
1.00792e-05
1.00752e-05
1.00729e-05
1.00716e-05
1.00709e-05
1.00704e-05
1.00702e-05
1.007e-05
1.007e-05
1.00699e-05
1.00699e-05
1.00699e-05
1.00699e-05
1.00699e-05
1.00699e-05
1.00699e-05
1.00699e-05
1.00699e-05
1.00699e-05
1.00699e-05
1.00699e-05
1.00699e-05
1.00698e-05
1.01021e-05
1.00963e-05
1.00992e-05
1.00911e-05
1.00713e-05
1.00491e-05
1.00307e-05
1.00197e-05
1.0018e-05
1.00226e-05
1.00315e-05
1.00425e-05
1.00541e-05
1.00653e-05
1.00754e-05
1.00844e-05
1.00927e-05
1.01009e-05
1.01102e-05
1.01224e-05
1.01415e-05
1.01742e-05
1.0231e-05
1.03257e-05
1.04729e-05
1.0688e-05
1.09826e-05
1.13654e-05
1.18284e-05
1.23125e-05
1.26965e-05
1.28373e-05
1.27519e-05
1.26358e-05
1.25846e-05
1.25343e-05
1.23896e-05
1.21219e-05
1.17824e-05
1.14292e-05
1.11055e-05
1.0834e-05
1.06201e-05
1.04591e-05
1.03425e-05
1.02607e-05
1.02046e-05
1.01669e-05
1.01422e-05
1.01261e-05
1.0116e-05
1.01096e-05
1.01055e-05
1.0103e-05
1.01015e-05
1.01006e-05
1.01001e-05
1.00997e-05
1.00995e-05
1.00994e-05
1.00994e-05
1.00993e-05
1.00993e-05
1.00993e-05
1.00993e-05
1.00993e-05
1.00993e-05
1.00993e-05
1.00994e-05
1.00994e-05
1.00994e-05
1.00994e-05
1.00994e-05
1.00993e-05
1.00991e-05
1.0147e-05
1.01947e-05
1.02131e-05
1.02092e-05
1.02189e-05
1.02469e-05
1.02776e-05
1.02999e-05
1.03161e-05
1.03319e-05
1.03499e-05
1.03687e-05
1.03852e-05
1.03993e-05
1.04112e-05
1.0422e-05
1.04317e-05
1.04412e-05
1.04516e-05
1.0464e-05
1.048e-05
1.0502e-05
1.0533e-05
1.05763e-05
1.06345e-05
1.07098e-05
1.0804e-05
1.0919e-05
1.10555e-05
1.12064e-05
1.13503e-05
1.14586e-05
1.15145e-05
1.15268e-05
1.15128e-05
1.14696e-05
1.13874e-05
1.12688e-05
1.11296e-05
1.09877e-05
1.08575e-05
1.0747e-05
1.06588e-05
1.05914e-05
1.05419e-05
1.05064e-05
1.04815e-05
1.04644e-05
1.04528e-05
1.04451e-05
1.044e-05
1.04367e-05
1.04346e-05
1.04332e-05
1.04324e-05
1.04319e-05
1.04316e-05
1.04314e-05
1.04313e-05
1.04313e-05
1.04312e-05
1.04312e-05
1.04312e-05
1.04313e-05
1.04313e-05
1.04313e-05
1.04313e-05
1.04313e-05
1.04313e-05
1.04313e-05
1.04313e-05
1.04313e-05
1.04313e-05
1.04313e-05
1.04311e-05
1.02675e-05
1.04122e-05
1.05761e-05
1.09031e-05
1.1353e-05
1.17755e-05
1.20936e-05
1.23009e-05
1.24064e-05
1.24504e-05
1.24614e-05
1.24571e-05
1.24467e-05
1.24344e-05
1.2424e-05
1.2413e-05
1.24016e-05
1.23903e-05
1.23793e-05
1.23685e-05
1.23575e-05
1.23461e-05
1.23336e-05
1.2319e-05
1.23009e-05
1.22782e-05
1.22524e-05
1.22279e-05
1.22121e-05
1.22136e-05
1.22365e-05
1.22771e-05
1.23258e-05
1.23737e-05
1.24157e-05
1.24434e-05
1.24536e-05
1.24482e-05
1.24327e-05
1.24135e-05
1.23956e-05
1.23819e-05
1.23736e-05
1.23699e-05
1.23698e-05
1.23719e-05
1.23752e-05
1.23789e-05
1.23825e-05
1.23858e-05
1.23886e-05
1.2391e-05
1.23929e-05
1.23945e-05
1.23957e-05
1.23967e-05
1.23975e-05
1.23981e-05
1.23985e-05
1.23989e-05
1.23992e-05
1.23994e-05
1.23995e-05
1.23996e-05
1.23997e-05
1.23998e-05
1.23998e-05
1.23999e-05
1.23999e-05
1.23999e-05
1.23999e-05
1.23999e-05
1.24e-05
1.24003e-05
1.24017e-05
1.05771e-05
1.12e-05
1.25069e-05
1.43859e-05
1.62159e-05
1.74486e-05
1.81299e-05
1.84195e-05
1.84803e-05
1.84346e-05
1.83508e-05
1.82622e-05
1.81824e-05
1.81134e-05
1.80496e-05
1.79899e-05
1.79329e-05
1.78759e-05
1.78157e-05
1.77493e-05
1.76735e-05
1.75852e-05
1.74821e-05
1.73624e-05
1.72267e-05
1.70788e-05
1.69274e-05
1.67867e-05
1.66739e-05
1.66059e-05
1.65945e-05
1.66412e-05
1.67362e-05
1.6862e-05
1.69941e-05
1.7121e-05
1.72378e-05
1.73421e-05
1.74345e-05
1.75168e-05
1.75905e-05
1.76567e-05
1.77155e-05
1.77668e-05
1.78105e-05
1.78469e-05
1.78764e-05
1.78998e-05
1.7918e-05
1.79321e-05
1.79427e-05
1.79507e-05
1.79566e-05
1.7961e-05
1.79643e-05
1.79666e-05
1.79684e-05
1.79696e-05
1.79705e-05
1.79711e-05
1.79716e-05
1.79719e-05
1.79721e-05
1.79723e-05
1.79724e-05
1.79725e-05
1.79725e-05
1.79725e-05
1.79726e-05
1.79726e-05
1.79726e-05
1.79727e-05
1.79731e-05
1.79748e-05
1.7981e-05
1.16078e-05
1.49478e-05
2.04164e-05
2.51425e-05
2.7631e-05
2.83681e-05
2.81537e-05
2.75969e-05
2.70259e-05
2.6561e-05
2.62177e-05
2.59744e-05
2.58024e-05
2.56744e-05
2.55757e-05
2.54937e-05
2.54195e-05
2.53461e-05
2.52676e-05
2.5179e-05
2.50762e-05
2.49565e-05
2.4819e-05
2.4667e-05
2.45089e-05
2.43598e-05
2.42405e-05
2.41749e-05
2.41835e-05
2.42776e-05
2.44542e-05
2.46937e-05
2.49645e-05
2.52164e-05
2.54097e-05
2.5543e-05
2.56228e-05
2.56596e-05
2.5667e-05
2.56576e-05
2.56411e-05
2.56226e-05
2.56051e-05
2.55892e-05
2.55748e-05
2.55616e-05
2.55493e-05
2.55379e-05
2.55274e-05
2.55178e-05
2.55093e-05
2.55017e-05
2.54952e-05
2.54897e-05
2.5485e-05
2.54811e-05
2.54778e-05
2.54752e-05
2.5473e-05
2.54712e-05
2.54698e-05
2.54686e-05
2.54677e-05
2.5467e-05
2.54664e-05
2.54659e-05
2.54655e-05
2.54652e-05
2.5465e-05
2.54648e-05
2.54647e-05
2.54649e-05
2.54661e-05
2.54706e-05
2.54857e-05
)
;

boundaryField
{
    ibCylinder
    {
        type            immersedBoundaryNutWallFunction;
        patchType       immersedBoundary;
        blending        stepwise;
        value           nonuniform List<scalar> 0();
    }
    in
    {
        type            zeroGradient;
    }
    out
    {
        type            zeroGradient;
    }
    top
    {
        type            zeroGradient;
    }
    bottom
    {
        type            zeroGradient;
    }
    frontAndBack
    {
        type            empty;
    }
}


// ************************************************************************* //
