/*--------------------------------*- C++ -*----------------------------------*\
| =========                 |                                                 |
| \\      /  F ield         | OpenFOAM: The Open Source CFD Toolbox           |
|  \\    /   O peration     | Version:  2206                                  |
|   \\  /    A nd           | Website:  www.openfoam.com                      |
|    \\/     M anipulation  |                                                 |
\*---------------------------------------------------------------------------*/
FoamFile
{
    version     2.0;
    format      ascii;
    arch        "LSB;label=32;scalar=64";
    class       volScalarField;
    location    "0.3";
    object      p;
}
// * * * * * * * * * * * * * * * * * * * * * * * * * * * * * * * * * * * * * //

dimensions      [0 2 -2 0 0 0 0];

internalField   nonuniform List<scalar> 
1875
(
3.28282
2.89325
2.6421
2.54409
2.4848
2.43996
2.40878
2.38839
2.37439
2.36359
2.35424
2.34527
2.33599
2.32592
2.31476
2.30242
2.28868
2.27337
2.25621
2.23684
2.2148
2.18949
2.16017
2.12595
2.08582
2.03862
1.98319
1.91833
1.84303
1.75663
1.65908
1.55127
1.43502
1.31298
1.18908
1.0679
0.953162
0.847724
0.753408
0.670862
0.599894
0.539719
0.489083
0.446564
0.410776
0.380457
0.354519
0.332045
0.312285
0.294643
0.278639
0.263901
0.250132
0.237106
0.224645
0.212615
0.200911
0.189457
0.178189
0.167064
0.156046
0.145108
0.134231
0.123399
0.112602
0.10183
0.0910775
0.0803388
0.0696103
0.0588899
0.0481751
0.037465
0.0267581
0.0160532
0.00535038
2.9077
2.75206
2.62346
2.54583
2.49275
2.45075
2.41864
2.39632
2.38038
2.36782
2.3572
2.34737
2.33751
2.32708
2.31576
2.30334
2.28959
2.27436
2.25736
2.23822
2.21648
2.19154
2.16267
2.12896
2.08939
2.04276
1.98781
1.92329
1.84806
1.7613
1.66292
1.5538
1.43574
1.31174
1.18612
1.06349
0.947758
0.841889
0.747641
0.665474
0.595077
0.535601
0.48568
0.443823
0.408606
0.378768
0.353222
0.33106
0.311543
0.294088
0.278228
0.263598
0.249911
0.236945
0.224529
0.212531
0.200851
0.189414
0.178159
0.167043
0.156031
0.145098
0.134224
0.123395
0.112599
0.101828
0.0910764
0.0803381
0.06961
0.0588896
0.0481751
0.037465
0.0267582
0.0160536
0.00535055
2.73088
2.68053
2.61002
2.5515
2.50419
2.46377
2.43202
2.40793
2.38946
2.37466
2.36248
2.3515
2.34079
2.32988
2.31837
2.30595
2.29239
2.27749
2.261
2.24257
2.22172
2.19787
2.17027
2.13802
2.09998
2.05492
2.00138
1.93782
1.86274
1.77491
1.67384
1.56054
1.43707
1.3071
1.17607
1.04933
0.931102
0.824476
0.730808
0.650096
0.581678
0.524352
0.476505
0.43649
0.402827
0.374268
0.34976
0.328415
0.309533
0.292571
0.277092
0.262751
0.249283
0.23648
0.224185
0.212278
0.200666
0.189278
0.178061
0.166972
0.15598
0.145061
0.134197
0.123376
0.112586
0.10182
0.0910704
0.0803341
0.0696073
0.0588879
0.0481741
0.0374646
0.0267582
0.0160539
0.00535072
2.65181
2.63097
2.58608
2.54231
2.50447
2.47143
2.44317
2.4189
2.39945
2.38362
2.37022
2.35788
2.34605
2.33451
2.32277
2.31043
2.29728
2.28301
2.26746
2.25028
2.23105
2.20917
2.18389
2.15426
2.11906
2.07687
2.02606
1.96459
1.89021
1.80062
1.69436
1.57297
1.43985
1.29861
1.15657
1.02177
0.899266
0.791773
0.69974
0.622234
0.557859
0.504619
0.460572
0.423794
0.392821
0.366489
0.343782
0.323838
0.306033
0.289918
0.275094
0.261257
0.248169
0.23565
0.223569
0.211822
0.200329
0.18903
0.177878
0.166838
0.155882
0.14499
0.134146
0.123339
0.11256
0.101801
0.0910575
0.0803252
0.0696013
0.058884
0.0481717
0.0374633
0.0267576
0.0160538
0.00535083
2.59967
2.58892
2.56154
2.52983
2.50046
2.4734
2.44865
2.42728
2.40871
2.39209
2.37772
2.36456
2.35218
2.34033
2.32851
2.31639
2.30373
2.29035
2.27605
2.26056
2.24351
2.22437
2.20243
2.17673
2.1461
2.10847
2.062
2.00433
1.93192
1.8402
1.72514
1.58923
1.438
1.28159
1.12674
0.980477
0.851875
0.743205
0.653763
0.581275
0.523294
0.476417
0.437946
0.405843
0.378738
0.355662
0.33557
0.31759
0.301266
0.286313
0.272377
0.259203
0.246615
0.234481
0.222696
0.211172
0.199847
0.188673
0.177614
0.166643
0.155739
0.144885
0.13407
0.123284
0.11252
0.101773
0.0910372
0.0803109
0.0695915
0.0588774
0.0481675
0.0374608
0.0267563
0.0160533
0.00535081
2.56372
2.55759
2.54029
2.51767
2.4948
2.47269
2.45173
2.43225
2.41446
2.39849
2.38397
2.3706
2.35824
2.34627
2.33443
2.32264
2.31077
2.29867
2.28615
2.27296
2.25859
2.24273
2.22495
2.20434
2.17966
2.14892
2.10974
2.0587
1.99109
1.89908
1.77616
1.63363
1.44529
1.25374
1.07947
0.911978
0.771172
0.667017
0.588339
0.52572
0.477227
0.439415
0.408719
0.383089
0.361211
0.342169
0.325152
0.309585
0.295253
0.281854
0.269048
0.256691
0.244711
0.233047
0.221623
0.210373
0.199253
0.188231
0.177285
0.166399
0.155559
0.144754
0.133974
0.123214
0.112469
0.101736
0.091011
0.0802923
0.0695785
0.0588686
0.0481618
0.0374572
0.0267543
0.0160524
0.00535072
2.53853
2.53465
2.52296
2.5064
2.48839
2.47019
2.45221
2.43484
2.41857
2.40339
2.38913
2.37589
2.36357
2.35172
2.34018
2.32899
2.31818
2.30758
2.297
2.2863
2.27513
2.26331
2.25058
2.23621
2.21907
2.19755
2.16912
2.12966
2.07456
1.99593
1.86278
1.72407
1.49441
1.23273
1.0194
0.798188
0.630686
0.547291
0.490394
0.449554
0.418941
0.394007
0.373715
0.356393
0.340822
0.326496
0.313091
0.300431
0.288348
0.276603
0.265082
0.253732
0.242517
0.231414
0.220406
0.209471
0.198588
0.187737
0.176915
0.166124
0.155356
0.144604
0.133864
0.123134
0.112411
0.101693
0.0909801
0.0802703
0.0695631
0.0588581
0.0481547
0.0374528
0.0267517
0.0160512
0.00535061
2.5204
2.51768
2.50923
2.49668
2.48223
2.46699
2.45143
2.43598
2.42101
2.40668
2.39307
2.38023
2.36814
2.35669
2.34576
2.33537
2.32563
2.31647
2.30781
2.29966
2.29203
2.28484
2.27793
2.27091
2.26303
2.25317
2.23875
2.21593
2.17803
2.12056
2.00006
0
0
0
0
0
0.586816
0.426124
0.375524
0.357656
0.350831
0.341882
0.334274
0.326893
0.318629
0.309736
0.300448
0.290882
0.281067
0.271041
0.260859
0.250554
0.240145
0.229642
0.219074
0.208469
0.197841
0.187188
0.176512
0.165824
0.155133
0.144441
0.133746
0.123048
0.112347
0.101646
0.0909459
0.0802457
0.0695457
0.058846
0.0481465
0.0374473
0.0267485
0.0160496
0.00535034
2.50726
2.50518
2.4987
2.48879
2.47688
2.46384
2.45017
2.43625
2.42244
2.40897
2.396
2.38364
2.37195
2.36095
2.35063
2.34107
2.33239
2.32469
2.31803
2.31257
2.30852
2.30603
2.30526
2.30624
2.30868
2.31231
2.3147
2.30477
2.27271
2.39283
0
0
0
0
0
0
0
0.323845
0.278066
0.262377
0.27699
0.288314
0.294037
0.296824
0.296406
0.293171
0.287998
0.281498
0.273995
0.265715
0.256841
0.247516
0.237845
0.227906
0.217766
0.207479
0.197089
0.186623
0.176096
0.165518
0.154906
0.144271
0.133621
0.122957
0.112281
0.101598
0.0909107
0.0802206
0.0695282
0.0588337
0.048138
0.0374417
0.026745
0.0160478
0.00534995
2.49792
2.49622
2.49096
2.48275
2.4726
2.46116
2.44886
2.4361
2.42323
2.4105
2.3981
2.38621
2.37494
2.3644
2.35466
2.34584
2.33814
2.33178
2.32697
2.324
2.32329
2.3253
2.33055
2.33952
2.35231
2.36934
2.38478
2.38886
2.53892
0
0
0
0
0
0
0
0
0
0.152186
0.171862
0.20438
0.237827
0.256919
0.269218
0.276122
0.278175
0.276811
0.273114
0.267703
0.260987
0.253282
0.244832
0.23582
0.226381
0.216622
0.206622
0.196446
0.186138
0.175729
0.165243
0.1547
0.144116
0.133503
0.122869
0.112217
0.101551
0.0908767
0.0801956
0.0695104
0.0588216
0.0481297
0.0374361
0.0267414
0.0160459
0.00534954
2.49165
2.4902
2.48566
2.47851
2.4695
2.45913
2.44777
2.43582
2.42364
2.41146
2.39951
2.38799
2.37709
2.36694
2.35768
2.34947
2.34255
2.33726
2.33395
2.33304
2.33514
2.34103
2.35167
2.36816
2.39117
2.42063
2.43911
2.4085
0
0
0
0
0
0
0
0
0
0
0
0.0886414
0.141008
0.195378
0.227374
0.247374
0.259969
0.266235
0.267931
0.266484
0.26274
0.257265
0.250485
0.242727
0.234234
0.225188
0.215725
0.20595
0.195941
0.185758
0.175443
0.165029
0.154541
0.143998
0.133415
0.122802
0.112167
0.101514
0.0908492
0.0801752
0.069495
0.0588104
0.048122
0.037431
0.0267381
0.0160439
0.00534895
2.48805
2.48671
2.48257
2.47599
2.46762
2.45787
2.44706
2.43559
2.42381
2.41198
2.40031
2.38903
2.37836
2.36847
2.35954
2.35176
2.34536
2.34074
2.3384
2.33887
2.34291
2.35157
2.36626
2.38885
2.42166
2.46716
2.49366
2.29641
0
0
0
0
0
0
0
0
0
0
0
0.0127295
0.092075
0.166078
0.207822
0.233215
0.249574
0.258576
0.262214
0.262226
0.259559
0.254881
0.248695
0.241381
0.233221
0.224425
0.215152
0.205519
0.195617
0.185514
0.17526
0.164892
0.154438
0.143922
0.133358
0.12276
0.112135
0.101491
0.0908319
0.0801626
0.0694858
0.0588036
0.0481172
0.0374277
0.0267359
0.0160424
0.0053484
2.48687
2.48557
2.48155
2.47514
2.46698
2.45743
2.44681
2.43549
2.42385
2.41214
2.40056
2.38937
2.37877
2.36896
2.36014
2.35255
2.34636
2.34192
2.33992
2.34088
2.34559
2.35521
2.37129
2.39583
2.4316
2.48042
2.50422
2.35869
0
0
0
0
0
0
0
0
0
0
0
-0.0133748
0.0730569
0.155458
0.200933
0.228237
0.245961
0.255928
0.260242
0.260753
0.258459
0.254055
0.248074
0.240913
0.232868
0.224159
0.21495
0.205367
0.195503
0.185428
0.175194
0.164842
0.154401
0.143894
0.133337
0.122744
0.112123
0.101482
0.0908254
0.0801579
0.0694825
0.0588012
0.0481154
0.0374265
0.0267351
0.0160419
0.00534829
2.48803
2.48669
2.48254
2.47597
2.46759
2.45785
2.44704
2.43556
2.42379
2.41196
2.40029
2.38901
2.37833
2.36844
2.35952
2.35174
2.34534
2.34072
2.33838
2.33886
2.34289
2.35155
2.36625
2.38883
2.42162
2.46714
2.49359
2.29652
0
0
0
0
0
0
0
0
0
0
0
0.0127133
0.0920597
0.166059
0.2078
0.233191
0.249551
0.258554
0.262191
0.262203
0.259537
0.25486
0.248675
0.241363
0.233205
0.224411
0.215138
0.205507
0.195607
0.185506
0.175252
0.164885
0.154433
0.143917
0.133354
0.122757
0.112132
0.101489
0.0908302
0.0801614
0.069485
0.058803
0.0481167
0.0374273
0.0267355
0.0160421
0.00534832
2.49161
2.49015
2.48561
2.47846
2.46945
2.45909
2.44772
2.43578
2.4236
2.41142
2.39947
2.38795
2.37704
2.36689
2.35764
2.34943
2.3425
2.33722
2.33391
2.333
2.33511
2.34099
2.35162
2.3681
2.39108
2.42059
2.4392
2.40876
0
0
0
0
0
0
0
0
0
0
0
0.0885855
0.140958
0.195333
0.227325
0.247327
0.259925
0.26619
0.267884
0.266438
0.262696
0.257223
0.250446
0.242691
0.234202
0.225159
0.2157
0.205927
0.195922
0.185741
0.175429
0.165017
0.154531
0.143989
0.133408
0.122796
0.112162
0.10151
0.090846
0.0801729
0.0694935
0.0588093
0.0481211
0.0374302
0.0267374
0.0160434
0.00534873
2.49785
2.49615
2.49089
2.48268
2.47253
2.46109
2.44879
2.43604
2.42317
2.41044
2.39804
2.38614
2.37488
2.36433
2.3546
2.34578
2.33808
2.33172
2.32691
2.32395
2.32324
2.32524
2.33049
2.33945
2.35224
2.36929
2.38482
2.38894
2.53898
0
0
0
0
0
0
0
0
0
0.152024
0.171755
0.204298
0.237755
0.256847
0.269145
0.276054
0.278105
0.276741
0.273047
0.267638
0.260926
0.253226
0.244781
0.235773
0.22634
0.216585
0.20659
0.196418
0.186114
0.175708
0.165225
0.154685
0.144104
0.133493
0.12286
0.11221
0.101545
0.0908721
0.0801924
0.0695082
0.05882
0.0481284
0.0374349
0.0267404
0.0160452
0.00534917
2.50717
2.50509
2.49861
2.4887
2.47679
2.46376
2.45009
2.43617
2.42236
2.40889
2.39592
2.38356
2.37187
2.36086
2.35055
2.34099
2.33232
2.32461
2.31796
2.3125
2.30845
2.30596
2.30518
2.30617
2.3086
2.31224
2.31466
2.30472
2.27256
2.39253
0
0
0
0
0
0
0
0.323701
0.277913
0.262251
0.276882
0.288212
0.293942
0.296731
0.296315
0.29308
0.28791
0.281413
0.273913
0.265638
0.256771
0.247452
0.237787
0.227854
0.21772
0.207439
0.197054
0.186593
0.17607
0.165496
0.154887
0.144256
0.133608
0.122946
0.112272
0.10159
0.090905
0.0802166
0.0695254
0.0588317
0.0481364
0.0374402
0.0267437
0.0160469
0.00534951
2.52029
2.51756
2.50912
2.49657
2.48212
2.46688
2.45132
2.43588
2.42091
2.40658
2.39297
2.38013
2.36804
2.35659
2.34567
2.33528
2.32554
2.31639
2.30772
2.29958
2.29194
2.28475
2.27784
2.27082
2.26292
2.25306
2.23865
2.21582
2.17783
2.12023
1.99979
0
0
0
0
0
0.586587
0.425917
0.375344
0.357505
0.3507
0.341759
0.334154
0.326783
0.318522
0.30963
0.300347
0.290784
0.280972
0.270952
0.260777
0.250479
0.240078
0.229582
0.219021
0.208423
0.197801
0.187153
0.176482
0.165798
0.155112
0.144423
0.133731
0.123035
0.112336
0.101637
0.0909393
0.0802411
0.0695425
0.0588437
0.0481447
0.0374458
0.0267471
0.0160487
0.00534988
2.5384
2.53453
2.52283
2.50627
2.48827
2.47007
2.45209
2.43473
2.41845
2.40327
2.38902
2.37577
2.36345
2.35161
2.34007
2.32888
2.31808
2.30748
2.2969
2.2862
2.27503
2.2632
2.25047
2.23608
2.21893
2.19741
2.16897
2.1295
2.07432
1.99563
1.86247
1.72375
1.49413
1.23241
1.01913
0.797974
0.630453
0.547062
0.490206
0.449393
0.418788
0.393864
0.37358
0.356267
0.3407
0.32638
0.312979
0.300323
0.288245
0.276506
0.264992
0.25365
0.242443
0.231348
0.220348
0.20942
0.198544
0.1877
0.176883
0.166096
0.155332
0.144584
0.133848
0.12312
0.112399
0.101684
0.0909731
0.0802653
0.0695597
0.0588557
0.0481529
0.0374512
0.0267504
0.0160504
0.00535017
2.56358
2.55745
2.54015
2.51753
2.49466
2.47255
2.45159
2.43212
2.41433
2.39837
2.38384
2.37047
2.35812
2.34614
2.33431
2.32252
2.31065
2.29856
2.28604
2.27285
2.25847
2.2426
2.22482
2.20419
2.1795
2.14875
2.10956
2.0585
1.99084
1.89881
1.77588
1.63335
1.44502
1.25346
1.0792
0.911729
0.770933
0.666784
0.588134
0.525543
0.477059
0.439253
0.40857
0.382948
0.361079
0.342043
0.325031
0.30947
0.295143
0.28175
0.268952
0.256604
0.244632
0.232978
0.221562
0.210319
0.199207
0.188192
0.177252
0.166371
0.155535
0.144733
0.133957
0.1232
0.112458
0.101726
0.0910037
0.0802871
0.069575
0.0588663
0.04816
0.0374559
0.0267532
0.0160518
0.0053504
2.59951
2.58877
2.56138
2.52967
2.5003
2.47325
2.4485
2.42714
2.40857
2.39196
2.37758
2.36443
2.35205
2.3402
2.32838
2.31626
2.30361
2.29023
2.27592
2.26043
2.24337
2.22423
2.20227
2.17656
2.14593
2.10828
2.06179
2.00411
1.93167
1.83993
1.72486
1.58895
1.43772
1.28133
1.12648
0.980225
0.851635
0.742982
0.653555
0.581078
0.523108
0.476244
0.437784
0.405693
0.378597
0.35553
0.335445
0.317471
0.301153
0.286207
0.27228
0.259114
0.246535
0.23441
0.222633
0.211118
0.1998
0.188633
0.17758
0.166614
0.155714
0.144865
0.134053
0.12327
0.112508
0.101763
0.09103
0.0803058
0.0695881
0.0588752
0.048166
0.0374598
0.0267556
0.016053
0.00535064
2.65165
2.63081
2.58591
2.54214
2.50431
2.47127
2.44301
2.41875
2.3993
2.38347
2.37008
2.35774
2.34591
2.33437
2.32263
2.31029
2.29714
2.28288
2.26732
2.25014
2.2309
2.20901
2.18371
2.15408
2.11886
2.07666
2.02584
1.96436
1.88995
1.80035
1.69409
1.5727
1.43957
1.29835
1.15631
1.02152
0.899029
0.791547
0.699524
0.62203
0.557667
0.504439
0.460404
0.423638
0.392676
0.366354
0.343655
0.323718
0.30592
0.289813
0.274997
0.261168
0.24809
0.235579
0.223506
0.211767
0.200282
0.18899
0.177844
0.166809
0.155857
0.14497
0.134129
0.123325
0.112549
0.101792
0.0910506
0.0803202
0.0695981
0.058882
0.0481706
0.0374627
0.0267574
0.0160538
0.00535076
2.73071
2.68036
2.60985
2.55133
2.50402
2.4636
2.43185
2.40777
2.38931
2.3745
2.36233
2.35135
2.34065
2.32973
2.31823
2.30581
2.29225
2.27735
2.26086
2.24242
2.22156
2.1977
2.17009
2.13782
2.09978
2.0547
2.00115
1.93757
1.86248
1.77464
1.67356
1.56027
1.4368
1.30683
1.17581
1.04908
0.930861
0.824246
0.730589
0.649888
0.581483
0.524169
0.476334
0.436333
0.402681
0.374133
0.349633
0.328296
0.309421
0.292467
0.276996
0.262664
0.249204
0.236409
0.224123
0.212224
0.200619
0.189238
0.178027
0.166943
0.155955
0.14504
0.134181
0.123362
0.112575
0.101811
0.0910636
0.0803292
0.0696041
0.058886
0.0481732
0.0374643
0.0267582
0.0160541
0.00535075
2.90753
2.75189
2.62328
2.54565
2.49258
2.45058
2.41848
2.39615
2.38022
2.36766
2.35705
2.34722
2.33736
2.32693
2.31561
2.30319
2.28945
2.27422
2.25721
2.23807
2.21631
2.19136
2.16248
2.12876
2.08918
2.04253
1.98757
1.92304
1.8478
1.76103
1.66265
1.55353
1.43547
1.31147
1.18586
1.06324
0.947517
0.841658
0.74742
0.665264
0.59488
0.535417
0.485509
0.443665
0.40846
0.378633
0.353096
0.330942
0.311434
0.293986
0.278134
0.263512
0.249834
0.236875
0.224467
0.212477
0.200805
0.189374
0.178125
0.167014
0.156007
0.145077
0.134207
0.123381
0.112588
0.10182
0.0910696
0.0803331
0.0696066
0.0588876
0.048174
0.0374647
0.0267583
0.0160539
0.00535067
3.28264
2.89308
2.64193
2.54392
2.48463
2.43979
2.40861
2.38822
2.37423
2.36343
2.35409
2.34512
2.33584
2.32577
2.31461
2.30228
2.28854
2.27322
2.25606
2.23669
2.21464
2.18931
2.15998
2.12575
2.0856
2.0384
1.98295
1.91808
1.84277
1.75636
1.65881
1.55099
1.43474
1.31271
1.18882
1.06765
0.952919
0.847491
0.753187
0.670653
0.599697
0.539536
0.488912
0.446407
0.410631
0.380324
0.354395
0.331929
0.312178
0.294543
0.278547
0.263817
0.250056
0.237037
0.224584
0.212561
0.200865
0.189417
0.178155
0.167035
0.156021
0.145088
0.134214
0.123386
0.112591
0.101821
0.0910707
0.0803336
0.0696069
0.0588876
0.048174
0.0374646
0.0267581
0.0160535
0.00535048
)
;

boundaryField
{
    ibCylinder
    {
        type            zeroGradientIb;
        patchType       immersedBoundary;
        setDeadValue    true;
        deadValue       0;
        value           nonuniform List<scalar> 0();
    }
    in
    {
        type            zeroGradient;
    }
    out
    {
        type            fixedValue;
        value           uniform 0;
    }
    top
    {
        type            zeroGradient;
    }
    bottom
    {
        type            zeroGradient;
    }
    frontAndBack
    {
        type            empty;
    }
}


// ************************************************************************* //
