/*--------------------------------*- C++ -*----------------------------------*\
| =========                 |                                                 |
| \\      /  F ield         | OpenFOAM: The Open Source CFD Toolbox           |
|  \\    /   O peration     | Version:  2206                                  |
|   \\  /    A nd           | Website:  www.openfoam.com                      |
|    \\/     M anipulation  |                                                 |
\*---------------------------------------------------------------------------*/
FoamFile
{
    version     2.0;
    format      ascii;
    arch        "LSB;label=32;scalar=64";
    class       surfaceScalarField;
    location    "0.3";
    object      phi;
}
// * * * * * * * * * * * * * * * * * * * * * * * * * * * * * * * * * * * * * //

dimensions      [0 3 -1 0 0 0 0];

oriented        oriented;

internalField   nonuniform List<scalar> 
3650
(
0.00275099
0.00044901
0.00224581
0.000505181
0.00182029
0.000425518
0.00149419
0.000326107
0.00125939
0.000234794
0.00110217
0.000157218
0.000999469
0.000102706
0.000935111
6.4359e-05
0.000896986
3.81256e-05
0.000875724
2.12622e-05
0.000865147
1.05774e-05
0.000861205
3.94235e-06
0.000861327
-1.214e-07
0.000863863
-2.53591e-06
0.000868007
-4.14362e-06
0.000873636
-5.62843e-06
0.000880705
-7.06794e-06
0.000889398
-8.69288e-06
0.000899998
-1.05994e-05
0.000912859
-1.28596e-05
0.000928377
-1.55183e-05
0.000946958
-1.85801e-05
0.000968972
-2.20147e-05
0.000994698
-2.57255e-05
0.00102428
-2.95777e-05
0.00105767
-3.33951e-05
0.00109456
-3.68887e-05
0.00113414
-3.95815e-05
0.00117491
-4.07726e-05
0.00121443
-3.95165e-05
0.00124927
-3.4842e-05
0.00127538
-2.61085e-05
0.00128901
-1.36306e-05
0.00128851
5.02646e-07
0.00127327
1.52391e-05
0.00124482
2.84456e-05
0.00120664
3.81841e-05
0.00116298
4.36579e-05
0.00111787
4.51061e-05
0.00107444
4.34363e-05
0.00103476
3.96748e-05
0.001
3.47624e-05
0.000970485
2.95174e-05
0.00094599
2.4494e-05
0.000926001
1.999e-05
0.000909886
1.61134e-05
0.000897017
1.28692e-05
0.000886809
1.02073e-05
0.000878755
8.05315e-06
0.000872432
6.32396e-06
0.000867486
4.9452e-06
0.000863633
3.8534e-06
0.000860638
2.99318e-06
0.000858319
2.31955e-06
0.000856525
1.79318e-06
0.000855141
1.38372e-06
0.000854074
1.06536e-06
0.000853255
8.19341e-07
0.000852625
6.28903e-07
0.000852143
4.82418e-07
0.000851772
3.69212e-07
0.00085149
2.825e-07
0.000851273
2.1548e-07
0.000851109
1.64314e-07
0.000850983
1.24693e-07
0.000850889
9.45993e-08
0.000850817
7.13305e-08
0.000850763
5.393e-08
0.000850722
4.04184e-08
0.000850692
3.03499e-08
0.000850669
2.2346e-08
0.000850652
1.62886e-08
0.000850641
1.13253e-08
0.000850633
7.69772e-09
4.63566e-09
0.00336527
0.000283745
0.00335124
0.000519203
0.00323593
0.000540828
0.00306631
0.000495731
0.00287425
0.000426855
0.00269223
0.000339241
0.00254108
0.000253853
0.00242599
0.000179446
0.00234437
0.000119748
0.00228932
7.63189e-05
0.0022544
4.54957e-05
0.00223379
2.45509e-05
0.00222289
1.07824e-05
0.0022186
1.74797e-06
0.00221892
-4.46054e-06
0.00222262
-9.32581e-06
0.00222917
-1.36202e-05
0.00223845
-1.79755e-05
0.00225055
-2.26907e-05
0.00226571
-2.80228e-05
0.00228432
-3.41265e-05
0.00230679
-4.10509e-05
0.00233352
-4.87463e-05
0.00236485
-5.70585e-05
0.00240105
-6.57725e-05
0.00244234
-7.46844e-05
0.00248882
-8.3374e-05
0.00254019
-9.09471e-05
0.00259528
-9.58621e-05
0.00265154
-9.5777e-05
0.00270438
-8.76853e-05
0.00274749
-6.92194e-05
0.00277427
-4.04035e-05
0.00278056
-5.79385e-06
0.00276503
3.0775e-05
0.0027292
6.42678e-05
0.00267795
8.94371e-05
0.00261778
0.000103831
0.00255489
0.000107996
0.00249422
0.000104104
0.00243908
9.48177e-05
0.00239108
8.27582e-05
0.0023506
7.00018e-05
0.00231719
5.79043e-05
0.00229002
4.71611e-05
0.00226814
3.79866e-05
0.00225066
3.03509e-05
0.00223675
2.4115e-05
0.00222573
1.90792e-05
0.00221702
1.50351e-05
0.00221016
1.18058e-05
0.00220477
9.24024e-06
0.00220055
7.21267e-06
0.00219725
5.6171e-06
0.00219468
4.36534e-06
0.00219268
3.38496e-06
0.00219112
2.61989e-06
0.00218992
2.02449e-06
0.00218898
1.5626e-06
0.00218826
1.20449e-06
0.0021877
9.27302e-07
0.00218727
7.12667e-07
0.00218694
5.46859e-07
0.00218668
4.18739e-07
0.00218649
3.20055e-07
0.00218634
2.43997e-07
0.00218622
1.85617e-07
0.00218614
1.40719e-07
0.00218607
1.06309e-07
0.00218602
7.97923e-08
0.00218598
5.93044e-08
0.00218596
4.35163e-08
0.00218594
3.07286e-08
0.00218592
2.17458e-08
1.2766e-08
0.0033269
0.000156842
0.00346178
0.000384327
0.00352834
0.000474267
0.00353852
0.000485551
0.00350603
0.000459353
0.00344213
0.000403137
0.00336219
0.000333789
0.00327936
0.000262282
0.00320544
0.000193669
0.00314591
0.000135847
0.00310155
8.9854e-05
0.00307042
5.56839e-05
0.00304978
3.14239e-05
0.00303723
1.42937e-05
0.00303089
1.88653e-06
0.0030292
-7.63223e-06
0.00303123
-1.56568e-05
0.00303656
-2.32988e-05
0.00304506
-3.11907e-05
0.00305678
-3.97462e-05
0.00307195
-4.92977e-05
0.00309088
-5.99827e-05
0.00311391
-7.17765e-05
0.00314136
-8.44992e-05
0.00317354
-9.79543e-05
0.00321113
-0.00011228
0.00325508
-0.000127323
0.00330627
-0.000142131
0.00336486
-0.000154453
0.00342892
-0.000159841
0.00349339
-0.00015215
0.00355018
-0.000126012
0.00358906
-7.92879e-05
0.00360246
-1.91861e-05
0.00358826
4.49753e-05
0.00354872
0.000103799
0.00349031
0.000147855
0.00342186
0.00017228
0.00335149
0.000178368
0.00328527
0.000170324
0.00322687
0.000153213
0.00317771
0.000131916
0.00313764
0.000110073
0.0031056
8.99434e-05
0.00308023
7.25296e-05
0.00306025
5.79707e-05
0.00304454
4.60563e-05
0.00303218
3.64749e-05
0.00302243
2.88292e-05
0.00301475
2.27247e-05
0.00300868
1.78667e-05
0.00300391
1.40128e-05
0.00300016
1.09675e-05
0.0029972
8.57023e-06
0.00299488
6.68449e-06
0.00299307
5.20245e-06
0.00299164
4.04157e-06
0.00299053
3.13529e-06
0.00298967
2.42966e-06
0.00298899
1.88057e-06
0.00298846
1.45366e-06
0.00298805
1.12174e-06
0.00298774
8.64212e-07
0.00298749
6.64537e-07
0.0029873
5.10149e-07
0.00298715
3.90796e-07
0.00298704
2.98681e-07
0.00298695
2.27508e-07
0.00298688
1.72576e-07
0.00298683
1.30083e-07
0.0029868
9.71149e-08
0.00298677
7.17454e-08
0.00298675
5.12041e-08
0.00298673
3.64271e-08
2.10933e-08
0.00326333
9.35137e-05
0.00339018
0.000257479
0.00350319
0.000361251
0.0035807
0.000408041
0.00362702
0.000413037
0.00364297
0.000387185
0.00363229
0.000344472
0.00360584
0.000288736
0.0035708
0.000228709
0.00353339
0.000173253
0.00349925
0.000123995
0.00347097
8.39633e-05
0.00344908
5.33116e-05
0.00343352
2.98599e-05
0.00342348
1.19301e-05
0.00341804
-2.19614e-06
0.00341656
-1.41761e-05
0.00341842
-2.51577e-05
0.00342351
-3.62832e-05
0.00343186
-4.80958e-05
0.00344369
-6.11242e-05
0.00345931
-7.56042e-05
0.0034791
-9.15625e-05
0.00350345
-0.000108853
0.00353284
-0.000127347
0.0035687
-0.000148134
0.00361376
-0.000172386
0.00367102
-0.000199388
0.0037428
-0.000226229
0.00382753
-0.000244577
0.00391637
-0.000240986
0.00399609
-0.000205737
0.00405147
-0.000134666
0.00406987
-3.75843e-05
0.00404958
6.52619e-05
0.00399546
0.000157925
0.00391724
0.000226078
0.00382817
0.000261349
0.00373989
0.000266644
0.00366046
0.000249752
0.003594
0.000219675
0.00354124
0.000184674
0.0035009
0.000150416
0.00347057
0.00012028
0.00344789
9.52071e-05
0.00343093
7.49225e-05
0.00341821
5.8783e-05
0.00340853
4.61573e-05
0.00340105
3.63042e-05
0.00339525
2.85224e-05
0.00339073
2.23883e-05
0.00338719
1.75527e-05
0.00338441
1.37476e-05
0.00338222
1.07656e-05
0.00338048
8.41756e-06
0.00337912
6.56799e-06
0.00337804
5.11586e-06
0.0033772
3.98071e-06
0.00337653
3.09516e-06
0.00337601
2.40411e-06
0.0033756
1.86468e-06
0.00337527
1.44378e-06
0.00337502
1.11597e-06
0.00337483
8.61099e-07
0.00337467
6.63424e-07
0.00337455
5.1016e-07
0.00337446
3.91389e-07
0.00337439
2.99236e-07
0.00337433
2.27814e-07
0.00337429
1.72345e-07
0.00337426
1.29231e-07
0.00337423
9.58185e-08
0.00337422
6.89623e-08
0.0033742
4.90793e-08
2.80866e-08
0.00323333
6.01847e-05
0.00331551
0.000175302
0.00341352
0.000263236
0.00350422
0.000317349
0.00357647
0.000340782
0.00362566
0.000337996
0.00365389
0.000316246
0.00366327
0.000279348
0.00365829
0.000233695
0.00364573
0.000185812
0.00362972
0.000140006
0.00361328
0.000100398
0.0035983
6.82945e-05
0.00358595
4.22083e-05
0.00357675
2.11341e-05
0.00357084
3.71678e-06
0.00356804
-1.13739e-05
0.00356812
-2.52423e-05
0.00357104
-3.9202e-05
0.00357692
-5.39745e-05
0.00358613
-7.03312e-05
0.00359922
-8.86992e-05
0.00361674
-0.000109081
0.00363922
-0.000131336
0.00366774
-0.000155865
0.00370557
-0.000185962
0.00375843
-0.000225243
0.00383221
-0.000273168
0.00393222
-0.000326235
0.00405438
-0.00036674
0.00418092
-0.000367526
0.00428864
-0.000313452
0.00434837
-0.000194399
0.00435726
-4.64703e-05
0.00432771
9.48123e-05
0.00425956
0.000226069
0.00415811
0.000327526
0.00403997
0.000379492
0.00392378
0.000382831
0.00382183
0.000351709
0.00374054
0.000300968
0.00367984
0.000245365
0.00363642
0.000193838
0.00360622
0.00015048
0.00358559
0.000115834
0.00357149
8.90298e-05
0.00356171
6.85583e-05
0.00355474
5.31257e-05
0.0035496
4.1449e-05
0.00354578
3.23411e-05
0.0035429
2.52719e-05
0.00354067
1.97764e-05
0.00353894
1.54875e-05
0.00353757
1.21346e-05
0.00353649
9.49735e-06
0.00353563
7.42018e-06
0.00353496
5.78843e-06
0.00353443
4.51316e-06
0.003534
3.51856e-06
0.00353367
2.74074e-06
0.0035334
2.13152e-06
0.00353319
1.65471e-06
0.00353302
1.28222e-06
0.00353289
9.92019e-07
0.00353279
7.66489e-07
0.00353271
5.91246e-07
0.00353264
4.54956e-07
0.00353259
3.48876e-07
0.00353255
2.6636e-07
0.00353253
2.0212e-07
0.0035325
1.52046e-07
0.00353248
1.12969e-07
0.00353247
8.17448e-08
0.00353246
5.79553e-08
3.27202e-08
0.00321886
4.13259e-05
0.00327073
0.000123435
0.0033417
0.000192263
0.00341756
0.000241486
0.00348832
0.000270028
0.00354734
0.000278972
0.00359264
0.000270949
0.00362303
0.000248955
0.00363939
0.000217333
0.00364487
0.000180331
0.00364316
0.000141721
0.00363783
0.000105722
0.00363115
7.49828e-05
0.0036244
4.896e-05
0.00361857
2.69656e-05
0.00361437
7.91123e-06
0.00361198
-8.98412e-06
0.00361152
-2.47833e-05
0.00361314
-4.0814e-05
0.00361713
-5.79634e-05
0.0036241
-7.73107e-05
0.00363497
-9.95627e-05
0.00365055
-0.000124662
0.00367178
-0.000152568
0.00370087
-0.000184958
0.00374247
-0.000227556
0.00380526
-0.000288029
0.00389781
-0.000365721
0.0040237
-0.00045212
0.00415709
-0.000500127
0.00427931
-0.000489749
0.00436248
-0.000396622
0.0043535
-0.000185422
0.00432866
-2.1624e-05
0.00431553
0.000107937
0.00427439
0.000267209
0.00420435
0.00039757
0.00410398
0.000479858
0.00398679
0.000500023
0.00387457
0.000463929
0.00378249
0.000393053
0.00371534
0.000312512
0.00366959
0.00023959
0.00363995
0.000180113
0.0036214
0.000134391
0.00361002
0.000100407
0.00360308
7.54986e-05
0.00359884
5.7368e-05
0.0035962
4.40854e-05
0.00359445
3.40937e-05
0.00359322
2.65007e-05
0.00359231
2.06921e-05
0.00359159
1.62085e-05
0.00359102
1.26958e-05
0.00359059
9.93311e-06
0.00359025
7.76102e-06
0.00358998
6.05583e-06
0.00358976
4.72804e-06
0.00358959
3.69487e-06
0.00358944
2.88471e-06
0.00358933
2.24777e-06
0.00358923
1.7479e-06
0.00358916
1.35651e-06
0.0035891
1.05133e-06
0.00358905
8.14166e-07
0.00358901
6.29634e-07
0.00358898
4.85638e-07
0.00358896
3.73267e-07
0.00358894
2.85573e-07
0.00358892
2.17162e-07
0.00358891
1.63684e-07
0.0035889
1.21732e-07
0.0035889
8.83177e-08
0.00358889
6.22657e-08
3.45957e-08
0.00321178
2.95429e-05
0.00324622
8.89965e-05
0.00329711
0.000141374
0.00335625
0.000182352
0.00341639
0.000209883
0.00347215
0.000223213
0.00352017
0.000222932
0.00355839
0.000210738
0.00358646
0.000189259
0.00360515
0.000161648
0.00361552
0.000131348
0.00361991
0.000101332
0.00362095
7.39475e-05
0.00361999
4.99145e-05
0.0036181
2.88625e-05
0.00361601
1.00021e-05
0.00361417
-7.15105e-06
0.00361319
-2.37979e-05
0.0036135
-4.11231e-05
0.00361568
-6.01429e-05
0.00362036
-8.19981e-05
0.00362851
-0.000107711
0.00364151
-0.000137658
0.00366077
-0.000171831
0.00368806
-0.000212241
0.0037275
-0.000266993
0.00378545
-0.000345977
0.00386779
-0.000448068
0.00395857
-0.000542898
0.00399697
-0.00053852
0.00308079
-0.00020416
0.00164923
1.64912e-18
0.000986209
1.1366e-18
0.000956546
8.90032e-19
0.00152669
8.51319e-19
0.00279207
7.16154e-19
0.00378824
9.21864e-05
0.00389077
0.000377326
0.00387946
0.000511337
0.00382265
0.000520743
0.00375385
0.000461852
0.00369547
0.000370894
0.00365539
0.000279669
0.00363086
0.00020464
0.00361694
0.000148306
0.00360965
0.000107697
0.00360616
7.89936e-05
0.00360476
5.87715e-05
0.0036045
4.43405e-05
0.00360474
3.38594e-05
0.00360511
2.61283e-05
0.00360548
2.03267e-05
0.00360579
1.58916e-05
0.00360606
1.24334e-05
0.00360627
9.72153e-06
0.00360644
7.58994e-06
0.00360658
5.9164e-06
0.00360668
4.62841e-06
0.00360674
3.63098e-06
0.00360678
2.84076e-06
0.00360682
2.2158e-06
0.00360684
1.72425e-06
0.00360686
1.3386e-06
0.00360687
1.03847e-06
0.00360688
8.05978e-07
0.00360688
6.24781e-07
0.00360689
4.82788e-07
0.00360689
3.71646e-07
0.00360689
2.84691e-07
0.00360689
2.16655e-07
0.00360689
1.63435e-07
0.00360689
1.21559e-07
0.00360689
8.8292e-08
0.00360689
6.18729e-08
3.37354e-08
0.00320818
2.13588e-05
0.00323271
6.44748e-05
0.00327039
0.000103687
0.00331677
0.000135976
0.00336698
0.000159669
0.00341669
0.000173502
0.00346264
0.000176986
0.0035026
0.000170776
0.00353539
0.000156474
0.0035606
0.000136432
0.00357865
0.000113299
0.00359056
8.94302e-05
0.00359782
6.66828e-05
0.00360181
4.59231e-05
0.00360347
2.72068e-05
0.00360341
1.00645e-05
0.00360236
-6.10526e-06
0.00360093
-2.236e-05
0.00359954
-3.97361e-05
0.00359886
-5.94604e-05
0.0035998
-8.29445e-05
0.00360362
-0.000111526
0.00361196
-0.000145998
0.00362561
-0.000185487
0.00364398
-0.000230604
0.00366644
-0.000289453
0.00368943
-0.000368961
0.00369794
-0.000456581
0.0036628
-0.000507758
0.00126568
-7.35642e-05
3.81236e-18
8.11239e-19
1.5243e-18
4.65675e-21
9.85215e-19
-7.41926e-21
1.03107e-18
1.9675e-20
1.30089e-18
4.21034e-20
1.8801e-18
9.04559e-20
0.00106604
3.56001e-19
0.00344512
1.80823e-05
0.00361659
0.000339864
0.0036603
0.000477036
0.00365402
0.000468127
0.00363143
0.000393486
0.00361183
0.000299262
0.00360042
0.000216052
0.00359554
0.000153191
0.00359471
0.000108523
0.00359598
7.77285e-05
0.00359813
5.66222e-05
0.00360047
4.19942e-05
0.00360266
3.16705e-05
0.00360457
2.42227e-05
0.00360617
1.87263e-05
0.00360748
1.45787e-05
0.00360853
1.13875e-05
0.00360935
8.89703e-06
0.00361
6.94651e-06
0.00361048
5.42864e-06
0.00361085
4.25973e-06
0.00361114
3.34458e-06
0.00361137
2.6144e-06
0.00361154
2.03862e-06
0.00361168
1.58571e-06
0.00361179
1.2293e-06
0.00361187
9.55231e-07
0.00361194
7.44718e-07
0.00361198
5.7877e-07
0.00361202
4.47678e-07
0.00361204
3.44784e-07
0.00361206
2.64094e-07
0.00361208
2.00816e-07
0.00361209
1.51501e-07
0.0036121
1.12662e-07
0.00361211
8.18018e-08
0.00361211
5.68494e-08
3.02715e-08
0.00320619
1.51734e-05
0.00322485
4.58151e-05
0.00325426
7.42704e-05
0.00329174
9.85009e-05
0.00333423
0.000117174
0.00337848
0.000129251
0.00342152
0.000133952
0.00346107
0.000131227
0.00349554
0.000121999
0.00352405
0.000107924
0.0035464
9.09537e-05
0.00356294
7.28886e-05
0.00357449
5.51306e-05
0.00358197
3.84458e-05
0.00358616
2.30157e-05
0.00358763
8.60262e-06
0.00358692
-5.40374e-06
0.00358452
-1.99589e-05
0.0035808
-3.6015e-05
0.0035763
-5.49609e-05
0.00357184
-7.84802e-05
0.00356856
-0.00010825
0.00356771
-0.000145139
0.00356862
-0.000186398
0.00356793
-0.000229916
0.00355754
-0.000279061
0.00351384
-0.000325257
0.00343892
-0.000381666
0.000659897
-0.000136086
3.36487e-18
8.24509e-19
5.16532e-19
1.68002e-20
3.83994e-20
2.40471e-21
7.11166e-20
2.25688e-21
1.51403e-19
4.23305e-21
3.45439e-19
1.24212e-20
8.35661e-19
1.97247e-20
1.75261e-18
1.18997e-20
0.000471866
1.8264e-19
0.00330202
4.96081e-05
0.00344029
0.000338771
0.0035044
0.00040402
0.00353351
0.000364375
0.00354784
0.000284927
0.00355782
0.00020607
0.00356656
0.000144458
0.00357459
0.000100489
0.00358176
7.05544e-05
0.00358794
5.04486e-05
0.00359311
3.68248e-05
0.00359735
2.74337e-05
0.00360077
2.07962e-05
0.00360352
1.59791e-05
0.00360571
1.23912e-05
0.00360744
9.65924e-06
0.00360879
7.54566e-06
0.00360984
5.8969e-06
0.00361065
4.61364e-06
0.0036113
3.61714e-06
0.0036118
2.8368e-06
0.0036122
2.21964e-06
0.00361251
1.73124e-06
0.00361275
1.34613e-06
0.00361293
1.04643e-06
0.00361307
8.17381e-07
0.00361317
6.383e-07
0.00361326
4.95098e-07
0.00361332
3.82432e-07
0.00361337
2.94206e-07
0.00361341
2.24566e-07
0.00361344
1.70532e-07
0.00361347
1.28921e-07
0.00361348
9.59075e-08
0.00361349
6.94028e-08
0.0036135
4.75018e-08
2.43892e-08
0.003205
1.01708e-05
0.00322013
3.06912e-05
0.00324439
5.00109e-05
0.00327605
6.68402e-05
0.003313
8.0217e-05
0.00335293
8.93254e-05
0.00339331
9.35671e-05
0.00343185
9.26865e-05
0.00346678
8.70697e-05
0.00349692
7.7793e-05
0.00352166
6.62097e-05
0.00354096
5.35862e-05
0.0035552
4.09003e-05
0.00356492
2.8719e-05
0.00357072
1.72177e-05
0.00357301
6.3161e-06
0.0035721
-4.49996e-06
0.00356825
-1.61022e-05
0.00356154
-2.93096e-05
0.00355208
-4.54997e-05
0.00354004
-6.64372e-05
0.0035258
-9.40113e-05
0.00350958
-0.000128914
0.00349033
-0.000167146
0.00346622
-0.000205806
0.00342842
-0.000241259
0.00334138
-0.000238212
0.00192358
-0.000170061
3.85935e-18
1.02796e-18
7.61914e-19
-2.65767e-20
1.05537e-20
1.61419e-21
1.79758e-20
1.29011e-21
3.68334e-20
1.71573e-21
8.24328e-20
2.3467e-21
1.47479e-19
5.44191e-21
3.2659e-19
4.17481e-21
9.11187e-19
1.31782e-20
1.95305e-18
4.58791e-20
0.00159389
9.35544e-20
0.00323959
0.000142479
0.00334881
0.000294797
0.00342386
0.000289327
0.0034752
0.000233584
0.00351047
0.000170803
0.00353543
0.000119497
0.00355368
8.22339e-05
0.00356735
5.68815e-05
0.00357774
4.00636e-05
0.0035857
2.88608e-05
0.00359187
2.1267e-05
0.00359667
1.59974e-05
0.00360043
1.22257e-05
0.00360337
9.44889e-06
0.00360567
7.35253e-06
0.00360748
5.74105e-06
0.00360889
4.48912e-06
0.00360999
3.51417e-06
0.00361085
2.75367e-06
0.00361153
2.15823e-06
0.00361206
1.68895e-06
0.00361247
1.31883e-06
0.00361279
1.0272e-06
0.00361304
7.997e-07
0.00361323
6.23951e-07
0.00361338
4.86663e-07
0.0036135
3.77877e-07
0.00361359
2.91734e-07
0.00361366
2.2376e-07
0.00361372
1.70702e-07
0.00361376
1.30229e-07
0.00361379
9.83932e-08
0.00361381
7.25814e-08
0.00361383
5.18828e-08
0.00361384
3.44355e-08
1.64377e-08
0.00320431
5.86167e-06
0.00321733
1.76732e-05
0.00323845
2.88922e-05
0.00326648
3.88034e-05
0.00329987
4.68274e-05
0.00333675
5.24502e-05
0.00337504
5.52794e-05
0.00341259
5.51363e-05
0.0034475
5.21543e-05
0.0034784
4.6892e-05
0.00350446
4.01539e-05
0.00352535
3.26959e-05
0.00354116
2.50942e-05
0.00355219
1.76833e-05
0.00355885
1.0559e-05
0.00356145
3.71883e-06
0.00356002
-3.07088e-06
0.00355449
-1.05685e-05
0.00354451
-1.93373e-05
0.00352947
-3.04529e-05
0.00350839
-4.53542e-05
0.00348009
-6.57126e-05
0.00344263
-9.14525e-05
0.00339516
-0.000119679
0.00333969
-0.000150336
0.00327286
-0.000174425
0.0031695
-0.000134848
5.32856e-18
5.75375e-06
1.3654e-18
2.14376e-21
5.24225e-21
0
5.07684e-21
-1.70879e-23
1.12494e-20
-2.0803e-22
2.42228e-20
-1.02601e-22
5.09699e-20
2.12318e-21
8.99761e-20
-1.60819e-22
2.14992e-19
-5.07126e-24
5.12831e-19
8.35258e-21
1.24003e-18
1.50092e-20
2.50533e-18
3.61152e-20
0.00310092
3.52475e-05
0.00322312
0.000172589
0.00332857
0.000183876
0.00340914
0.000153022
0.00346691
0.000113026
0.00350725
7.91584e-05
0.00353529
5.41936e-05
0.00355504
3.71316e-05
0.00356923
2.58726e-05
0.00357964
1.8456e-05
0.00358741
1.34918e-05
0.00359332
1.0088e-05
0.00359787
7.67906e-06
0.0036014
5.92012e-06
0.00360415
4.60092e-06
0.0036063
3.59122e-06
0.00360798
2.80897e-06
0.0036093
2.1995e-06
0.00361033
1.72343e-06
0.00361113
1.35035e-06
0.00361177
1.05687e-06
0.00361226
8.25691e-07
0.00361264
6.43907e-07
0.00361294
5.017e-07
0.00361317
3.91087e-07
0.00361336
3.04519e-07
0.0036135
2.36234e-07
0.00361361
1.82264e-07
0.00361369
1.39593e-07
0.00361376
1.06132e-07
0.00361381
8.03484e-08
0.00361385
6.00958e-08
0.00361387
4.3646e-08
0.0036139
3.03872e-08
0.00361391
1.88829e-08
7.44773e-09
0.00320393
1.93334e-06
0.00321581
5.78824e-06
0.00323523
9.47509e-06
0.00326127
1.27591e-05
0.00329267
1.54285e-05
0.0033278
1.73192e-05
0.00336479
1.82972e-05
0.00340162
1.8301e-05
0.00343641
1.73628e-05
0.00346765
1.56539e-05
0.00349437
1.34396e-05
0.00351609
1.09727e-05
0.00353274
8.4449e-06
0.00354446
5.96597e-06
0.00355146
3.56254e-06
0.003554
1.17526e-06
0.00355206
-1.13194e-06
0.00354517
-3.67549e-06
0.00353256
-6.73412e-06
0.00351278
-1.06731e-05
0.00348343
-1.60044e-05
0.00344107
-2.33449e-05
0.00338202
-3.23995e-05
0.00330409
-4.17506e-05
0.00320423
-5.04679e-05
0.00308242
-5.26126e-05
0.00298009
-3.25205e-05
3.37607e-18
-7.8425e-06
4.35862e-19
2.27804e-21
4.77959e-21
0
4.51785e-21
-6.28953e-25
9.07032e-21
-3.48634e-23
2.17158e-20
1.32544e-21
3.80084e-20
-6.58122e-23
7.64554e-20
-1.16395e-23
1.73772e-19
4.46346e-21
3.32576e-19
5.60982e-22
8.42396e-19
1.8378e-21
1.96931e-18
7.48837e-21
0.00302373
5.20091e-06
0.00314147
5.4851e-05
0.00326254
6.28107e-05
0.00336239
5.31702e-05
0.00343582
3.95869e-05
0.00348721
2.77688e-05
0.00352244
1.8966e-05
0.00354665
1.29229e-05
0.00356357
8.95594e-06
0.00357567
6.35491e-06
0.00358453
4.62711e-06
0.00359117
3.44942e-06
0.00359623
2.62097e-06
0.00360013
2.01861e-06
0.00360317
1.56856e-06
0.00360553
1.22477e-06
0.00360738
9.58752e-07
0.00360883
7.51244e-07
0.00360997
5.8895e-07
0.00361085
4.61529e-07
0.00361155
3.61335e-07
0.00361209
2.82378e-07
0.00361252
2.20331e-07
0.00361285
1.7156e-07
0.00361311
1.33435e-07
0.00361331
1.0342e-07
0.00361346
7.97352e-08
0.00361358
6.09557e-08
0.00361368
4.60351e-08
0.00361375
3.42279e-08
0.00361381
2.49397e-08
0.00361385
1.75621e-08
0.00361388
1.14846e-08
0.0036139
6.63781e-09
0.00361392
2.13134e-09
-2.33694e-09
0.00320379
-1.86133e-06
0.00321529
-5.71094e-06
0.00323415
-9.38364e-06
0.00325958
-1.2669e-05
0.00329036
-1.53475e-05
0.00332493
-1.72546e-05
0.00336148
-1.82545e-05
0.00339807
-1.8283e-05
0.0034328
-1.73683e-05
0.00346413
-1.56782e-05
0.00349105
-1.34766e-05
0.00351304
-1.10155e-05
0.00352997
-8.48772e-06
0.00354194
-6.00314e-06
0.00354909
-3.59008e-06
0.00355145
-1.18809e-06
0.00354919
1.13544e-06
0.00354181
3.70059e-06
0.00352829
6.78728e-06
0.00350685
1.07647e-05
0.0034747
1.61438e-05
0.00342783
2.35345e-05
0.0033628
3.26345e-05
0.00327901
4.20377e-05
0.00317795
5.05918e-05
0.00307323
5.21132e-05
0.00300921
3.14948e-05
3.24836e-18
7.68402e-06
4.57501e-19
-2.48789e-21
4.78211e-21
0
4.13431e-21
6.28463e-25
1.01998e-20
3.49417e-23
1.62336e-20
-1.32494e-21
3.34047e-20
6.65223e-23
7.80827e-20
3.0959e-23
1.38764e-19
-5.57229e-21
3.07335e-19
-5.95135e-22
7.72737e-19
-1.84649e-21
1.91924e-18
-7.48496e-21
0.00300408
-5.19342e-06
0.00311377
-5.48359e-05
0.00323932
-6.27469e-05
0.00334554
-5.3042e-05
0.00342455
-3.94305e-05
0.00347997
-2.76524e-05
0.00351785
-1.89097e-05
0.00354367
-1.29017e-05
0.00356158
-8.94977e-06
0.00357429
-6.35298e-06
0.00358354
-4.62408e-06
0.00359043
-3.44408e-06
0.00359567
-2.61406e-06
0.0035997
-2.01068e-06
0.00360283
-1.55975e-06
0.00360527
-1.21555e-06
0.00360717
-9.49362e-07
0.00360867
-7.42449e-07
0.00360984
-5.81135e-07
0.00361075
-4.54948e-07
0.00361147
-3.55904e-07
0.00361203
-2.78036e-07
0.00361247
-2.16991e-07
0.00361281
-1.69478e-07
0.00361308
-1.32716e-07
0.00361329
-1.04174e-07
0.00361345
-8.18674e-08
0.00361357
-6.4362e-08
0.00361367
-5.07488e-08
0.00361374
-4.02646e-08
0.0036138
-3.23983e-08
0.00361385
-2.63761e-08
0.00361388
-2.16547e-08
0.0036139
-1.79543e-08
0.00361392
-1.48716e-08
-1.22733e-08
0.00320392
-5.7813e-06
0.00321581
-1.75991e-05
0.00323523
-2.88022e-05
0.00326128
-3.87175e-05
0.00329268
-4.67506e-05
0.00332781
-5.23887e-05
0.0033648
-5.52387e-05
0.00340163
-5.51191e-05
0.00343642
-5.21596e-05
0.00346766
-4.69157e-05
0.00349438
-4.01901e-05
0.0035161
-3.27382e-05
0.00353275
-2.51368e-05
0.00354446
-1.7721e-05
0.00355146
-1.05881e-05
0.00355401
-3.73615e-06
0.00355208
3.06946e-06
0.00354519
1.05855e-05
0.0035326
1.93778e-05
0.00351284
3.05234e-05
0.00348352
4.54637e-05
0.00344119
6.5868e-05
0.00338215
9.1684e-05
0.00330416
0.000120022
0.00320431
0.000150446
0.00308246
0.000173967
0.00297996
0.00013399
3.37614e-18
-6.03728e-06
4.35779e-19
-2.41962e-21
4.77963e-21
0
4.51815e-21
1.70989e-23
9.0701e-21
2.08114e-22
2.16952e-20
1.02749e-22
3.77982e-20
-2.11937e-21
7.54239e-20
1.7639e-22
1.73457e-19
4.86124e-23
3.32578e-19
-8.35403e-21
8.42414e-19
-1.49984e-20
1.96933e-18
-3.60858e-20
0.00302371
-3.52168e-05
0.00314135
-0.000172472
0.00326235
-0.000183756
0.00336221
-0.0001529
0.0034357
-0.000112917
0.00348715
-7.91016e-05
0.00352241
-5.41707e-05
0.00354663
-3.71273e-05
0.00356356
-2.58743e-05
0.00357566
-1.84569e-05
0.00358453
-1.34905e-05
0.00359117
-1.00838e-05
0.00359623
-7.67288e-06
0.00360013
-5.91262e-06
0.00360316
-4.59256e-06
0.00360553
-3.58233e-06
0.00360738
-2.79996e-06
0.00360883
-2.19096e-06
0.00360996
-1.7159e-06
0.00361085
-1.34396e-06
0.00361155
-1.05165e-06
0.00361209
-8.21502e-07
0.00361252
-6.40777e-07
0.00361285
-4.99794e-07
0.0036131
-3.90565e-07
0.00361331
-3.05432e-07
0.00361346
-2.38494e-07
0.00361358
-1.85788e-07
0.00361368
-1.44371e-07
0.00361375
-1.12231e-07
0.00361381
-8.78178e-08
0.00361385
-6.88644e-08
0.00361388
-5.36761e-08
0.0036139
-4.15074e-08
0.00361392
-3.13856e-08
-2.18001e-08
0.0032043
-1.00844e-05
0.00321732
-3.06194e-05
0.00323845
-4.99238e-05
0.00326649
-6.67601e-05
0.00329988
-8.01461e-05
0.00333676
-8.92688e-05
0.00337505
-9.35297e-05
0.00341261
-9.26707e-05
0.00344752
-8.70748e-05
0.00347842
-7.78158e-05
0.00350448
-6.62445e-05
0.00352536
-5.36276e-05
0.00354117
-4.09424e-05
0.00355221
-2.87578e-05
0.00355887
-1.72496e-05
0.00356147
-6.33838e-06
0.00356005
4.49086e-06
0.00355453
1.61068e-05
0.00354457
2.93303e-05
0.00352956
4.55378e-05
0.00350854
6.64897e-05
0.00348034
9.40658e-05
0.00344303
0.000128996
0.0033958
0.000167253
0.00334066
0.00020559
0.00327385
0.000240778
0.0031699
0.000237944
5.32977e-18
0.000170177
1.36576e-18
-1.02791e-18
5.24269e-21
2.66049e-20
5.07768e-21
-1.61438e-21
1.12504e-20
-1.28999e-21
2.42192e-20
-1.71534e-21
5.09552e-20
-2.34649e-21
8.9982e-20
-5.43963e-21
2.14989e-19
-4.15478e-21
5.12856e-19
-1.31667e-20
1.2401e-18
-4.5846e-20
2.50539e-18
-9.34619e-20
0.00310083
-0.000142366
0.00322297
-0.000294604
0.00332839
-0.000289183
0.00340898
-0.000233493
0.00346683
-0.000170765
0.00350722
-0.000119496
0.00353529
-8.22358e-05
0.00355504
-5.68838e-05
0.00356923
-4.00643e-05
0.00357964
-2.88592e-05
0.00358741
-2.12637e-05
0.00359332
-1.59919e-05
0.00359787
-1.22189e-05
0.00360139
-9.44108e-06
0.00360415
-7.34428e-06
0.0036063
-5.73231e-06
0.00360798
-4.48054e-06
0.00360929
-3.50601e-06
0.00361032
-2.74654e-06
0.00361113
-2.15212e-06
0.00361176
-1.68407e-06
0.00361226
-1.31491e-06
0.00361264
-1.02445e-06
0.00361294
-7.98163e-07
0.00361317
-6.23792e-07
0.00361336
-4.87864e-07
0.0036135
-3.80354e-07
0.00361361
-2.95454e-07
0.00361369
-2.28651e-07
0.00361376
-1.76908e-07
0.00361381
-1.37707e-07
0.00361385
-1.07031e-07
0.00361387
-8.23538e-08
0.0036139
-6.26652e-08
0.00361391
-4.6483e-08
-3.02471e-08
0.00320501
-1.50926e-05
0.00322013
-4.57439e-05
0.0032444
-7.41873e-05
0.00327606
-9.84256e-05
0.00331302
-0.000117108
0.00335295
-0.000129199
0.00339334
-0.000133918
0.00343188
-0.000131212
0.00346681
-0.000122004
0.00349694
-0.000107946
0.00352168
-9.09868e-05
0.00354098
-7.29281e-05
0.00355521
-5.5172e-05
0.00356494
-3.8485e-05
0.00357074
-2.30498e-05
0.00357303
-8.62949e-06
0.00357213
5.38614e-06
0.00356829
1.99507e-05
0.00356161
3.60153e-05
0.00355218
5.49662e-05
0.00354019
7.84781e-05
0.00352605
0.000108213
0.00350998
0.000145061
0.00349098
0.000186258
0.00346701
0.000229556
0.00342916
0.000278632
0.00334184
0.000325265
0.0019237
0.000382118
3.85954e-18
0.000136214
7.61843e-19
-8.24398e-19
1.05556e-20
-1.68018e-20
1.7979e-20
-2.40432e-21
3.6865e-20
-2.25819e-21
8.25731e-20
-4.24123e-21
1.4755e-19
-1.2417e-20
3.26628e-19
-1.97127e-20
9.11249e-19
-1.18758e-20
1.95312e-18
-1.82465e-19
0.00159387
-4.95918e-05
0.0032395
-0.000338591
0.00334873
-0.000403832
0.0034238
-0.000364255
0.00347519
-0.000284885
0.0035105
-0.000206075
0.00353548
-0.000144468
0.00355373
-0.000100486
0.00356739
-7.05451e-05
0.00357776
-5.04373e-05
0.00358572
-3.6814e-05
0.00359188
-2.74239e-05
0.00359667
-2.07866e-05
0.00360042
-1.59697e-05
0.00360336
-1.23819e-05
0.00360567
-9.65017e-06
0.00360747
-7.53668e-06
0.00360888
-5.88843e-06
0.00360998
-4.60593e-06
0.00361084
-3.61039e-06
0.00361152
-2.83102e-06
0.00361205
-2.21509e-06
0.00361247
-1.7277e-06
0.00361279
-1.34384e-06
0.00361304
-1.04545e-06
0.00361323
-8.17706e-07
0.00361338
-6.39844e-07
0.0036135
-4.97854e-07
0.00361359
-3.86392e-07
0.00361366
-2.99275e-07
0.00361372
-2.30774e-07
0.00361376
-1.77945e-07
0.00361379
-1.37381e-07
0.00361381
-1.05353e-07
0.00361383
-7.97465e-08
0.00361384
-5.8945e-08
-3.73977e-08
0.0032062
-2.12891e-05
0.00322486
-6.44076e-05
0.00325428
-0.00010361
0.00329176
-0.000135905
0.00333426
-0.000159608
0.00337852
-0.000173455
0.00342155
-0.000176955
0.00346111
-0.000170764
0.00349558
-0.000156479
0.00352409
-0.000136451
0.00354643
-0.00011333
0.00356297
-8.94672e-05
0.00357452
-6.67223e-05
0.00358199
-4.59614e-05
0.00358618
-2.72414e-05
0.00358765
-1.00945e-05
0.00358695
6.0816e-06
0.00358456
2.23422e-05
0.00358086
3.97221e-05
0.00357638
5.94443e-05
0.00357194
8.29138e-05
0.0035687
0.000111456
0.00356789
0.000145873
0.00356884
0.000185306
0.0035681
0.000230295
0.00355757
0.000289166
0.00351386
0.000368971
0.00343905
0.00045692
0.000659913
0.000508002
3.36513e-18
7.35803e-05
5.16718e-19
-8.11183e-19
3.84383e-20
-4.65926e-21
7.11756e-20
7.44566e-21
1.51453e-19
-1.9689e-20
3.45529e-19
-4.21072e-20
8.35791e-19
-9.0413e-20
1.75261e-18
-3.55873e-19
0.000471877
-1.80934e-05
0.00330198
-0.000339788
0.00344027
-0.000476882
0.00350443
-0.000467995
0.00353359
-0.000393419
0.00354796
-0.000299252
0.00355793
-0.00021605
0.00356664
-0.000153178
0.00357465
-0.000108497
0.00358181
-7.76994e-05
0.00358796
-5.65955e-05
0.00359312
-4.19726e-05
0.00359735
-3.1653e-05
0.00360077
-2.42082e-05
0.00360352
-1.87136e-05
0.0036057
-1.45672e-05
0.00360743
-1.1377e-05
0.00360878
-8.88743e-06
0.00360983
-6.93797e-06