/*--------------------------------*- C++ -*----------------------------------*\
| =========                 |                                                 |
| \\      /  F ield         | OpenFOAM: The Open Source CFD Toolbox           |
|  \\    /   O peration     | Version:  2206                                  |
|   \\  /    A nd           | Website:  www.openfoam.com                      |
|    \\/     M anipulation  |                                                 |
\*---------------------------------------------------------------------------*/
FoamFile
{
    version     2.0;
    format      ascii;
    arch        "LSB;label=32;scalar=64";
    class       volVectorField;
    location    "0.3";
    object      U;
}
// * * * * * * * * * * * * * * * * * * * * * * * * * * * * * * * * * * * * * //

dimensions      [0 1 -1 0 0 0 0];

internalField   nonuniform List<vector> 
1875
(
(0.792328 0.0207274 0)
(0.749666 0.0853902 0)
(0.648934 0.083067 0)
(0.517307 0.0484271 0)
(0.423249 0.0240593 0)
(0.364125 0.0122955 0)
(0.325593 0.00614983 0)
(0.300462 0.00275242 0)
(0.285005 0.000936432 0)
(0.276157 7.22483e-05 0)
(0.271498 -0.000343796 0)
(0.26941 -0.000538198 0)
(0.268974 -0.000636686 0)
(0.269429 -0.000688905 0)
(0.270519 -0.000754005 0)
(0.27205 -0.000846589 0)
(0.274036 -0.000967077 0)
(0.276496 -0.00113321 0)
(0.2795 -0.00134999 0)
(0.283154 -0.00161989 0)
(0.287575 -0.00194515 0)
(0.292892 -0.00232333 0)
(0.299225 -0.00274791 0)
(0.30668 -0.00320527 0)
(0.315317 -0.00367211 0)
(0.325158 -0.00411592 0)
(0.336155 -0.00448529 0)
(0.348138 -0.00470664 0)
(0.360761 -0.00468663 0)
(0.373432 -0.00431932 0)
(0.385212 -0.00353191 0)
(0.394975 -0.00232364 0)
(0.401306 -0.000816276 0)
(0.403263 0.000795879 0)
(0.400915 0.0024821 0)
(0.393991 0.00383352 0)
(0.383385 0.00472971 0)
(0.370406 0.00515131 0)
(0.356375 0.00515795 0)
(0.34241 0.0048639 0)
(0.329368 0.00437715 0)
(0.317711 0.00378939 0)
(0.307669 0.00318511 0)
(0.299248 0.00261943 0)
(0.292324 0.00212006 0)
(0.286709 0.00169472 0)
(0.282206 0.00134179 0)
(0.278622 0.0010546 0)
(0.275789 0.000824291 0)
(0.273558 0.000640987 0)
(0.27181 0.000496242 0)
(0.270446 0.000382681 0)
(0.269385 0.000294134 0)
(0.268561 0.000225493 0)
(0.267924 0.00017249 0)
(0.267432 0.000131698 0)
(0.267052 0.000100357 0)
(0.266761 7.63604e-05 0)
(0.266536 5.79516e-05 0)
(0.266364 4.3922e-05 0)
(0.266232 3.32017e-05 0)
(0.266131 2.50987e-05 0)
(0.266054 1.88993e-05 0)
(0.265995 1.42139e-05 0)
(0.26595 1.05858e-05 0)
(0.265916 7.87658e-06 0)
(0.26589 5.80503e-06 0)
(0.265871 4.32331e-06 0)
(0.265856 3.17472e-06 0)
(0.265846 2.35109e-06 0)
(0.265837 1.66899e-06 0)
(0.265831 1.14867e-06 0)
(0.265827 7.52269e-07 0)
(0.265824 4.17728e-07 0)
(0.265821 2.29638e-07 0)
(1.01385 0.122453 0)
(1.05091 0.186899 0)
(1.03813 0.17715 0)
(0.990251 0.154899 0)
(0.929362 0.123922 0)
(0.867338 0.088303 0)
(0.815301 0.0597788 0)
(0.773811 0.0386391 0)
(0.74327 0.0237011 0)
(0.722372 0.0136947 0)
(0.708757 0.00717183 0)
(0.700451 0.00306853 0)
(0.695808 0.000540151 0)
(0.69357 -0.000977929 0)
(0.693113 -0.00195885 0)
(0.693775 -0.00283336 0)
(0.695414 -0.00365957 0)
(0.697904 -0.0045433 0)
(0.701241 -0.00555986 0)
(0.705489 -0.0067546 0)
(0.710753 -0.00815161 0)
(0.717157 -0.00975425 0)
(0.724834 -0.0115464 0)
(0.733898 -0.013487 0)
(0.744435 -0.015513 0)
(0.756522 -0.0175457 0)
(0.770216 -0.0194463 0)
(0.785508 -0.0209674 0)
(0.802203 -0.0217324 0)
(0.819744 -0.0212261 0)
(0.837133 -0.0188644 0)
(0.852544 -0.0142814 0)
(0.863806 -0.00762735 0)
(0.869059 -3.14557e-05 0)
(0.867745 0.00787008 0)
(0.859553 0.0149955 0)
(0.845603 0.0202593 0)
(0.827814 0.023223 0)
(0.808259 0.0240319 0)
(0.78867 0.0231512 0)
(0.770464 0.0211333 0)
(0.754301 0.0185111 0)
(0.740483 0.0157189 0)
(0.728977 0.0130489 0)
(0.719564 0.0106571 0)
(0.711952 0.00859952 0)
(0.70585 0.00687719 0)
(0.700986 0.00546348 0)
(0.697123 0.00431787 0)
(0.694067 0.00339673 0)
(0.691656 0.00266116 0)
(0.68976 0.00207761 0)
(0.688274 0.00161711 0)
(0.687111 0.00125569 0)
(0.686203 0.000972759 0)
(0.685496 0.000751988 0)
(0.684946 0.000580132 0)
(0.684519 0.000446932 0)
(0.684189 0.000343826 0)
(0.683933 0.000264217 0)
(0.683735 0.000202712 0)
(0.683582 0.000155317 0)
(0.683465 0.000118759 0)
(0.683374 9.06584e-05 0)
(0.683305 6.90293e-05 0)
(0.683252 5.24446e-05 0)
(0.683211 3.97187e-05 0)
(0.68318 3.00097e-05 0)
(0.683156 2.25754e-05 0)
(0.683138 1.68962e-05 0)
(0.683125 1.25034e-05 0)
(0.683115 9.12389e-06 0)
(0.683108 6.38429e-06 0)
(0.683103 4.47803e-06 0)
(0.683098 2.67642e-06 0)
(1.01278 0.0740229 0)
(1.06015 0.148096 0)
(1.09626 0.164368 0)
(1.10912 0.159159 0)
(1.10339 0.146231 0)
(1.08745 0.125529 0)
(1.06413 0.100353 0)
(1.03775 0.0747057 0)
(1.0123 0.0518133 0)
(0.991359 0.0342354 0)
(0.975164 0.0213023 0)
(0.963517 0.0122619 0)
(0.955608 0.0061728 0)
(0.950591 0.00205406 0)
(0.947756 -0.000836032 0)
(0.946602 -0.00300351 0)
(0.946702 -0.00485885 0)
(0.947883 -0.00670855 0)
(0.95006 -0.00864691 0)
(0.953222 -0.0107934 0)
(0.957418 -0.0132262 0)
(0.96274 -0.0159737 0)
(0.969292 -0.0190226 0)
(0.977174 -0.0223212 0)
(0.986469 -0.0257993 0)
(0.997314 -0.0294041 0)
(1.00997 -0.0330249 0)
(1.02474 -0.0363418 0)
(1.04186 -0.0387393 0)
(1.06116 -0.0391935 0)
(1.08159 -0.0363767 0)
(1.10119 -0.0292199 0)
(1.11677 -0.0177242 0)
(1.12523 -0.00347754 0)
(1.12523 0.0117699 0)
(1.1166 0.0257643 0)
(1.10082 0.0362559 0)
(1.08045 0.0422202 0)
(1.05826 0.043916 0)
(1.03659 0.0422537 0)
(1.01699 0.0383692 0)
(1.00016 0.0333828 0)
(0.986262 0.0281543 0)
(0.975075 0.023237 0)
(0.966191 0.0188943 0)
(0.959178 0.0151996 0)
(0.953662 0.0121355 0)
(0.949325 0.00964301 0)
(0.945906 0.0076354 0)
(0.943208 0.00602343 0)
(0.941081 0.00473566 0)
(0.939404 0.00371178 0)
(0.938085 0.00290178 0)
(0.937047 0.00226366 0)
(0.936232 0.00176234 0)
(0.935592 0.00136899 0)
(0.935091 0.00106145 0)
(0.934699 0.000821665 0)
(0.934393 0.000635351 0)
(0.934155 0.000490656 0)
(0.933969 0.000378443 0)
(0.933824 0.000291393 0)
(0.933712 0.000224007 0)
(0.933625 0.000171863 0)
(0.933558 0.00013162 0)
(0.933505 0.000100578 0)
(0.933465 7.66748e-05 0)
(0.933434 5.82668e-05 0)
(0.933411 4.40915e-05 0)
(0.933393 3.31642e-05 0)
(0.933379 2.46918e-05 0)
(0.933369 1.81946e-05 0)
(0.933361 1.29059e-05 0)
(0.933356 9.16994e-06 0)
(0.933351 5.33807e-06 0)
(1.00547 0.0375367 0)
(1.03501 0.0953449 0)
(1.07804 0.129857 0)
(1.11039 0.141765 0)
(1.12779 0.139333 0)
(1.13906 0.126483 0)
(1.13803 0.109007 0)
(1.13201 0.0896387 0)
(1.1219 0.0695961 0)
(1.11014 0.0512532 0)
(1.09854 0.0354792 0)
(1.08862 0.0230165 0)
(1.08079 0.0137567 0)
(1.07499 0.00705063 0)
(1.07105 0.00212931 0)
(1.06868 -0.00166461 0)
(1.06766 -0.00480095 0)
(1.06774 -0.00771056 0)
(1.06885 -0.0106846 0)
(1.07096 -0.0138587 0)
(1.0741 -0.0173679 0)
(1.07838 -0.0212826 0)
(1.08391 -0.0256053 0)
(1.0908 -0.0302836 0)
(1.09918 -0.0352935 9.54092e-34)
(1.10922 -0.0407239 -9.50484e-34)
(1.12165 -0.0465817 0)
(1.13738 -0.0526335 0)
(1.15738 -0.0580706 0)
(1.18199 -0.0610303 0)
(1.20979 -0.0588703 0)
(1.2371 -0.0492059 0)
(1.2595 -0.030824 0)
(1.27124 -0.00778095 0)
(1.27098 0.0165409 0)
(1.25906 0.0391914 0)
(1.23769 0.056208 0)
(1.21065 0.065512 0)
(1.18215 0.0676335 0)
(1.15558 0.0642447 0)
(1.13262 0.0573729 0)
(1.11403 0.0490034 0)
(1.09962 0.0405758 0)
(1.08874 0.0329108 0)
(1.08061 0.0263681 0)
(1.07453 0.020958 0)
(1.06997 0.0165763 0)
(1.06653 0.0130888 0)
(1.06389 0.0103288 0)
(1.06184 0.00813602 0)
(1.06025 0.0063972 0)
(1.059 0.00502268 0)
(1.05803 0.0039378 0)
(1.05726 0.00308227 0)
(1.05665 0.00240798 0)
(1.05617 0.00187736 0)
(1.05579 0.00146108 0)
(1.05549 0.00113549 0)
(1.05526 0.000881527 0)
(1.05508 0.00068354 0)
(1.05493 0.000529293 0)
(1.05482 0.000409154 0)
(1.05473 0.00031576 0)
(1.05466 0.000243238 0)
(1.05461 0.000187078 0)
(1.05456 0.000143593 0)
(1.05453 0.000109968 0)
(1.05451 8.39262e-05 0)
(1.05449 6.37864e-05 0)
(1.05447 4.81724e-05 0)
(1.05446 3.60468e-05 0)
(1.05445 2.66921e-05 0)
(1.05444 1.91375e-05 0)
(1.05444 1.36294e-05 0)
(1.05444 7.85577e-06 0)
(1.00292 0.0231543 0)
(1.01939 0.0648063 0)
(1.04987 0.0950326 0)
(1.08205 0.112454 0)
(1.10812 0.118267 0)
(1.1271 0.11486 0)
(1.13877 0.105592 0)
(1.14504 0.0909787 0)
(1.14463 0.0738808 0)
(1.14179 0.057344 0)
(1.13702 0.0422326 0)
(1.13165 0.0296591 0)
(1.1267 0.019749 0)
(1.12235 0.0118314 0)
(1.11894 0.00556649 0)
(1.11658 0.000486971 0)
(1.11524 -0.00384745 0)
(1.11483 -0.00783129 0)
(1.11531 -0.0118539 0)
(1.11668 -0.0160939 0)
(1.11902 -0.0207126 0)
(1.12249 -0.0258003 0)
(1.12726 -0.0314208 0)
(1.13349 -0.037533 0)
(1.14145 -0.0440583 0)
(1.15133 -0.0517605 0)
(1.1652 -0.0613403 0)
(1.18449 -0.0723984 0)
(1.21144 -0.0840179 0)
(1.24667 -0.09278 0)
(1.2868 -0.093737 0)
(1.32488 -0.0830409 0)
(1.35344 -0.0551483 0)
(1.36298 -0.015161 0)
(1.35897 0.0260508 0)
(1.34431 0.0621858 0)
(1.31764 0.0875635 0)
(1.28159 0.0993436 0)
(1.24376 0.0995974 0)
(1.20909 0.0920301 0)
(1.18021 0.0799907 0)
(1.15813 0.0664094 0)
(1.14215 0.0533572 0)
(1.13089 0.0421404 0)
(1.12322 0.0330069 0)
(1.11798 0.0257874 0)
(1.11435 0.0201335 0)
(1.11181 0.0157435 0)
(1.10997 0.0123351 0)
(1.1086 0.00965977 0)
(1.10757 0.00756807 0)
(1.10678 0.00592448 0)
(1.10617 0.00463522 0)
(1.10569 0.00363126 0)
(1.10531 0.00284161 0)
(1.10501 0.00221876 0)
(1.10477 0.00172944 0)
(1.10459 0.00134733 0)
(1.10444 0.00104923 0)
(1.10432 0.000816292 0)
(1.10423 0.000634104 0)
(1.10415 0.00049171 0)
(1.10409 0.000380613 0)
(1.10405 0.000294124 0)
(1.10401 0.000226971 0)
(1.10398 0.000174826 0)
(1.10396 0.000134351 0)
(1.10394 0.000102881 0)
(1.10393 7.84532e-05 0)
(1.10392 5.94475e-05 0)
(1.10391 4.4662e-05 0)
(1.1039 3.31593e-05 0)
(1.1039 2.39454e-05 0)
(1.1039 1.70202e-05 0)
(1.10389 9.68738e-06 0)
(1.00168 0.0156189 0)
(1.01137 0.0452956 0)
(1.03141 0.0693334 0)
(1.05596 0.0857519 0)
(1.0798 0.0944991 0)
(1.1003 0.096211 0)
(1.11671 0.0920789 0)
(1.12865 0.0833762 0)
(1.13571 0.07182 0)
(1.13902 0.0586785 0)
(1.13908 0.0452017 0)
(1.13792 0.0330682 0)
(1.13586 0.0230566 0)
(1.13366 0.0146716 0)
(1.13161 0.00771948 0)
(1.13002 0.00188017 0)
(1.12899 -0.00321328 0)
(1.12855 -0.00785104 0)
(1.12872 -0.0124722 0)
(1.12959 -0.0173871 0)
(1.1312 -0.0229969 0)
(1.13399 -0.0294274 0)
(1.13809 -0.0365555 0)
(1.14379 -0.0443669 0)
(1.1515 -0.05322 0)
(1.16211 -0.0643837 0)
(1.17779 -0.0795564 0)
(1.2014 -0.0991064 0)
(1.23625 -0.121914 0)
(1.27876 -0.140071 0)
(1.31898 -0.138836 0)
(1.35751 -0.116418 0)
(1.36212 -0.0710805 0)
(1.35592 -0.0159894 0)
(1.35007 0.0334804 0)
(1.3437 0.0837536 0)
(1.32793 0.1216 0)
(1.30142 0.140771 0)
(1.26465 0.141789 0)
(1.22758 0.128584 0)
(1.19479 0.108162 0)
(1.1699 0.0868209 0)
(1.15257 0.0676059 0)
(1.14118 0.0517251 0)
(1.13398 0.0392433 0)
(1.12954 0.0297264 0)
(1.12683 0.0225891 0)
(1.12516 0.0173501 0)
(1.12417 0.0135062 0)
(1.12351 0.010531 0)
(1.12305 0.00821818 0)
(1.12273 0.00642367 0)
(1.12248 0.00502827 0)
(1.12228 0.00393784 0)
(1.12212 0.00308178 0)
(1.122 0.00240823 0)
(1.12191 0.00187937 0)
(1.12183 0.0014666 0)
(1.12177 0.00114494 0)
(1.12172 0.000893071 0)
(1.12168 0.000695422 0)
(1.12165 0.000540503 0)
(1.12162 0.000419333 0)
(1.1216 0.000324873 0)
(1.12159 0.000251397 0)
(1.12157 0.000194227 0)
(1.12156 0.000149661 0)
(1.12155 0.000114929 0)
(1.12155 8.78599e-05 0)
(1.12154 6.67665e-05 0)
(1.12154 5.02997e-05 0)
(1.12153 3.74045e-05 0)
(1.12153 2.7122e-05 0)
(1.12153 1.91867e-05 0)
(1.12153 1.07578e-05 0)
(1.00106 0.0109975 0)
(1.0073 0.032432 0)
(1.02086 0.0508985 0)
(1.03901 0.0650118 0)
(1.05836 0.0740291 0)
(1.07678 0.0778738 0)
(1.09321 0.0769589 0)
(1.10681 0.0720187 0)
(1.11717 0.0639895 0)
(1.12442 0.0540266 0)
(1.12879 0.0434157 0)
(1.13093 0.0330774 0)
(1.13161 0.0238288 0)
(1.13152 0.0159374 0)
(1.13097 0.00914303 0)
(1.13033 0.00309007 0)
(1.1297 -0.00232833 0)
(1.12921 -0.0075094 0)
(1.12908 -0.0128722 0)
(1.12942 -0.0186479 0)
(1.13043 -0.0250933 0)
(1.13239 -0.0325326 0)
(1.13562 -0.0410757 0)
(1.1406 -0.0507014 0)
(1.14774 -0.0621274 0)
(1.15787 -0.0776168 0)
(1.17277 -0.099948 0)
(1.19417 -0.12864 0)
(1.22593 -0.160105 0)
(1.24981 -0.170814 0)
(1.24128 -0.156633 0)
(1.206 -0.114481 0)
(1.10989 -0.0380443 2.09138e-18)
(1.05719 -0.000216584 6.74891e-17)
(1.07254 0.0253147 5.55708e-17)
(1.11116 0.0591285 -3.81803e-17)
(1.15758 0.102849 -3.53121e-20)
(1.21297 0.153579 0)
(1.21993 0.168786 0)
(1.20614 0.160767 0)
(1.18376 0.137086 0)
(1.16269 0.108171 0)
(1.1473 0.0818567 0)
(1.13754 0.0605966 0)
(1.13186 0.0445185 0)
(1.1288 0.0328064 0)
(1.12728 0.024401 0)
(1.12661 0.0183573 0)
(1.1264 0.0139387 0)
(1.12643 0.0106847 0)
(1.12654 0.008274 0)
(1.12666 0.0064633 0)
(1.12677 0.00507543 0)
(1.12686 0.0039797 0)
(1.12693 0.00311623 0)
(1.12699 0.00243805 0)
(1.12704 0.00190392 0)
(1.12707 0.00148615 0)
(1.1271 0.0011611 0)
(1.12712 0.000907209 0)
(1.12713 0.000707445 0)
(1.12713 0.000550293 0)
(1.12714 0.000427063 0)
(1.12715 0.000331129 0)
(1.12715 0.000256708 0)
(1.12715 0.000198777 0)
(1.12715 0.000153476 0)
(1.12715 0.000118093 0)
(1.12715 9.04342e-05 0)
(1.12715 6.88429e-05 0)
(1.12715 5.1937e-05 0)
(1.12715 3.86462e-05 0)
(1.12715 2.8071e-05 0)
(1.12715 1.97437e-05 0)
(1.12715 1.08838e-05 0)
(1.00074 0.00791686 0)
(1.00513 0.0235446 0)
(1.01491 0.0375485 0)
(1.02855 0.0488894 0)
(1.04417 0.0570113 0)
(1.06008 0.0614586 0)
(1.07525 0.0622034 0)
(1.08882 0.0595607 0)
(1.10027 0.0541663 0)
(1.10933 0.046886 0)
(1.11604 0.038633 0)
(1.12062 0.0302486 0)
(1.1235 0.0223911 0)
(1.12516 0.0153098 0)
(1.12597 0.00901253 0)
(1.12618 0.00331581 0)
(1.12596 -0.00198426 0)
(1.12553 -0.0072159 0)
(1.12505 -0.012704 0)
(1.12467 -0.0188129 0)
(1.12464 -0.0259597 0)
(1.12529 -0.03449 0)
(1.12709 -0.0445791 0)
(1.13057 -0.0561805 0)
(1.13563 -0.0698781 1.61544e-32)
(1.14253 -0.0883977 -1.60605e-32)
(1.1493 -0.115175 0)
(1.15574 -0.147323 0)
(1.15231 -0.170471 0)
(1.10964 -0.147408 6.85118e-17)
(0.935459 -0.0472431 0)
(0 0 0)
(0 0 0)
(0 0 0)
(0 0 0)
(0 0 0)
(0.983614 0.0193217 1.16773e-17)
(1.03754 0.0714105 1.56131e-17)
(1.12024 0.145555 0)
(1.14462 0.162899 0)
(1.14474 0.150737 0)
(1.13861 0.122744 0)
(1.13126 0.0923098 0)
(1.1263 0.0668782 0)
(1.12394 0.0478404 0)
(1.12324 0.0342623 0)
(1.12344 0.0248057 0)
(1.12404 0.0182459 0)
(1.12478 0.0136508 0)
(1.12551 0.0103678 0)
(1.12615 0.00796645 0)
(1.1267 0.00617293 0)
(1.12715 0.00480885 0)
(1.12752 0.00375665 0)
(1.12781 0.00293262 0)
(1.12804 0.00228421 0)
(1.12821 0.00177946 0)
(1.12834 0.00139836 0)
(1.12844 0.00110305 0)
(1.12852 0.000863995 0)
(1.12858 0.000674512 0)
(1.12863 0.000525895 0)
(1.12867 0.00040882 0)
(1.1287 0.000317053 0)
(1.12872 0.000246026 0)
(1.12874 0.000190925 0)
(1.12875 0.000147684 0)
(1.12876 0.000113713 0)
(1.12877 8.70897e-05 0)
(1.12877 6.62556e-05 0)
(1.12878 4.99932e-05 0)
(1.12878 3.71795e-05 0)
(1.12878 2.70095e-05 0)
(1.12878 1.88717e-05 0)
(1.12879 1.01842e-05 0)
(1.00056 0.0056885 0)
(1.00389 0.0169795 0)
(1.0114 0.0273553 0)
(1.02216 0.0360857 0)
(1.03497 0.0427199 0)
(1.04881 0.0468872 0)
(1.06265 0.048317 0)
(1.07572 0.0470766 0)
(1.0874 0.0435431 0)
(1.09729 0.0383289 0)
(1.10523 0.03214 0)
(1.11126 0.0256287 0)
(1.11558 0.0193005 0)
(1.11848 0.013417 0)
(1.12024 0.00802664 0)
(1.12108 0.00303309 0)
(1.12116 -0.0017525 0)
(1.12064 -0.00664723 0)
(1.11965 -0.0119604 0)
(1.11831 -0.0181085 0)
(1.11685 -0.0255789 0)
(1.11553 -0.0348453 0)
(1.11484 -0.0461802 0)
(1.11501 -0.0590628 0)
(1.11525 -0.0732855 0)
(1.11498 -0.0908153 0)
(1.10555 -0.112188 0)
(1.08246 -0.137665 0)
(1.0528 -0.136194 8.31889e-17)
(0.952188 -0.0274638 0)
(0 0 0)
(0 0 0)
(0 0 0)
(0 0 0)
(0 0 0)
(0 0 0)
(0 0 0)
(0.952387 0.0074612 3.12675e-18)
(0.999082 0.0645592 4.86296e-17)
(1.06625 0.133319 0)
(1.08898 0.140544 0)
(1.10109 0.122171 0)
(1.10706 0.0939236 0)
(1.11038 0.0675825 0)
(1.11315 0.0475192 0)
(1.11579 0.03329 0)
(1.11822 0.0235669 0)
(1.12032 0.0169847 0)
(1.12209 0.0124856 0)
(1.12356 0.00935127 0)
(1.12475 0.00711737 0)
(1.12571 0.00548448 0)
(1.12647 0.00426135 0)
(1.12708 0.00332592 0)
(1.12756 0.00260038 0)
(1.12793 0.00203335 0)
(1.12822 0.00159144 0)
(1.12844 0.00124671 0)
(1.12862 0.000976116 0)
(1.12876 0.000762821 0)
(1.12886 0.00059405 0)
(1.12895 0.000460671 0)
(1.12902 0.000356662 0)
(1.12906 0.000278709 0)
(1.1291 0.000218697 0)
(1.12913 0.000170079 0)
(1.12915 0.000131615 0)
(1.12917 0.000101573 0)
(1.12919 7.79273e-05 0)
(1.1292 5.91686e-05 0)
(1.1292 4.45721e-05 0)
(1.12921 3.31329e-05 0)
(1.12922 2.40543e-05 0)
(1.12922 1.66102e-05 0)
(1.12922 8.7093e-06 0)
(1.00046 0.00394919 0)
(1.00315 0.011804 0)
(1.00928 0.0191444 0)
(1.01822 0.0254888 0)
(1.02916 0.0304868 0)
(1.04136 0.0338436 0)
(1.05412 0.035334 0)
(1.06662 0.0348753 0)
(1.07823 0.0326533 0)
(1.08847 0.0290839 0)
(1.09707 0.0246797 0)
(1.10394 0.0199177 0)
(1.10914 0.0151676 0)
(1.11283 0.0106415 0)
(1.11521 0.00640042 0)
(1.11644 0.00239877 0)
(1.11664 -0.00154731 0)
(1.11588 -0.00570822 0)
(1.11421 -0.0103842 0)
(1.11166 -0.0160222 0)
(1.10828 -0.0231758 0)
(1.10413 -0.032417 0)
(1.09945 -0.0440609 0)
(1.0938 -0.0569734 0)
(1.08732 -0.0699646 2.13628e-33)
(1.07961 -0.0830763 -2.13405e-33)
(1.05403 -0.0896122 0)
(0.988393 -0.0894021 2.15993e-17)
(0.877309 -0.0361017 0)
(0 0 0)
(0 0 0)
(0 0 0)
(0 0 0)
(0 0 0)
(0 0 0)
(0 0 0)
(0 0 0)
(0 0 0)
(0.951261 0.0178671 1.23725e-17)
(0.995106 0.075387 -1.571e-17)
(1.03488 0.11047 0)
(1.05943 0.104631 0)
(1.07931 0.083313 0)
(1.09247 0.0605842 0)
(1.10141 0.0423452 0)
(1.10797 0.0292318 0)
(1.11288 0.0203286 0)
(1.11659 0.014399 0)
(1.11941 0.0104256 0)
(1.12159 0.00771514 0)
(1.12328 0.00582031 0)
(1.1246 0.00445782 0)
(1.12564 0.00345036 0)
(1.12645 0.00268705 0)
(1.12708 0.00209884 0)
(1.12758 0.00164137 0)
(1.12797 0.00128519 0)
(1.12827 0.00100758 0)
(1.12851 0.00079006 0)
(1.12869 0.000618425 0)
(1.12884 0.000483119 0)
(1.12895 0.000376408 0)
(1.12904 0.000293092 0)
(1.12911 0.000228482 0)
(1.12916 0.000177887 0)
(1.1292 0.000137945 0)
(1.12923 0.000106332 0)
(1.12926 8.14054e-05 0)
(1.12928 6.18736e-05 0)
(1.12929 4.72208e-05 0)
(1.1293 3.59117e-05 0)
(1.12931 2.67144e-05 0)
(1.12932 1.92758e-05 0)
(1.12932 1.30977e-05 0)
(1.12933 6.55871e-06 0)
(1.00039 0.00250058 0)
(1.00271 0.00747017 0)
(1.00801 0.0121688 0)
(1.01583 0.0163026 0)
(1.0256 0.0196358 0)
(1.03673 0.0219581 0)
(1.04863 0.0231083 0)
(1.06068 0.0230101 0)
(1.07213 0.0217289 0)
(1.0825 0.0195087 0)
(1.09145 0.0166831 0)
(1.0988 0.0135672 0)
(1.10451 0.010403 0)
(1.10868 0.00733261 0)
(1.11141 0.00440225 0)
(1.11282 0.00160309 0)
(1.113 -0.00120649 0)
(1.11192 -0.00425537 0)
(1.10952 -0.0077873 0)
(1.10566 -0.0122103 0)
(1.10008 -0.0180615 0)
(1.09246 -0.0259589 0)
(1.08238 -0.0359365 0)
(1.06865 -0.0468366 0)
(1.05277 -0.0582421 0)
(1.03481 -0.0679339 0)
(0.987132 -0.0569392 0)
(0.910682 -0.0302497 7.39539e-17)
(0 0 0)
(0 0 0)
(0 0 0)
(0 0 0)
(0 0 0)
(0 0 0)
(0 0 0)
(0 0 0)
(0 0 0)
(0 0 0)
(0 0 0)
(0.955965 0.0363597 0)
(0.992466 0.072369 0)
(1.0244 0.07513 0)
(1.05409 0.0621162 0)
(1.07589 0.0457403 0)
(1.09067 0.0320074 0)
(1.101 0.0219254 0)
(1.10828 0.0150534 0)
(1.11345 0.0105188 0)
(1.1172 0.0075239 0)
(1.11998 0.0055133 0)
(1.12208 0.0041293 0)
(1.12369 0.00314708 0)
(1.12494 0.00242826 0)
(1.12591 0.00188806 0)
(1.12667 0.00147397 0)
(1.12726 0.00115287 0)
(1.12772 0.000902719 0)
(1.12808 0.000707496 0)
(1.12837 0.000554456 0)
(1.12859 0.000433989 0)
(1.12876 0.000339036 0)
(1.1289 0.000264407 0)
(1.129 0.000206128 0)
(1.12908 0.000160843 0)
(1.12915 0.000125376 0)
(1.1292 9.73633e-05 0)
(1.12924 7.52719e-05 0)
(1.12927 5.77975e-05 0)
(1.12929 4.40812e-05 0)
(1.12931 3.34782e-05 0)
(1.12932 2.51361e-05 0)
(1.12933 1.84104e-05 0)
(1.12934 1.29625e-05 0)
(1.12935 8.30081e-06 0)
(1.12935 3.6744e-06 0)
(1.00036 0.00121401 0)
(1.00247 0.0036257 0)
(1.00732 0.00592072 0)
(1.01454 0.00796117 0)
(1.02365 0.00962671 0)
(1.03419 0.0108089 0)
(1.04559 0.011423 0)
(1.05731 0.0114286 0)
(1.06865 0.0108454 0)
(1.07906 0.00978188 0)
(1.08817 0.00840136 0)
(1.09576 0.00686133 0)
(1.10175 0.00528112 0)
(1.10617 0.00372896 0)
(1.10907 0.00222235 0)
(1.11053 0.000759914 0)
(1.11062 -0.000660943 0)
(1.10929 -0.00227684 0)
(1.1063 -0.00418804 0)
(1.10135 -0.00663834 0)
(1.09385 -0.00996795 0)
(1.0829 -0.014545 0)
(1.06699 -0.0202568 0)
(1.04534 -0.0262125 0)
(1.01783 -0.0320533 9.08022e-33)
(0.978272 -0.0334798 -9.14822e-33)
(0.875682 -0.0159352 0)
(0.677655 0.00283943 3.69116e-18)
(0 0 0)
(0 0 0)
(0 0 0)
(0 0 0)
(0 0 0)
(0 0 0)
(0 0 0)
(0 0 0)
(0 0 0)
(0 0 0)
(0 0 0)
(0.945714 0.00946503 6.44486e-19)
(0.966724 0.0330692 0)
(0.999871 0.0388279 0)
(1.03628 0.0330185 0)
(1.06403 0.0245937 0)
(1.08301 0.0172594 0)
(1.09607 0.0117973 0)
(1.10512 0.00803885 0)
(1.11135 0.00556969 0)
(1.11575 0.00395196 0)
(1.11894 0.00287682 0)
(1.12131 0.00214423 0)
(1.12311 0.00162895 0)
(1.12449 0.00125442 0)
(1.12556 0.000974469 0)
(1.12639 0.000760629 0)
(1.12705 0.000595155 0)
(1.12755 0.000466191 0)
(1.12795 0.000365416 0)
(1.12827 0.000286324 0)
(1.12851 0.000224142 0)
(1.1287 0.000175155 0)
(1.12885 0.000136666 0)
(1.12897 0.000106492 0)
(1.12906 8.29802e-05 0)
(1.12913 6.4532e-05 0)
(1.12919 4.9995e-05 0)
(1.12923 3.84976e-05 0)
(1.12926 2.94238e-05 0)
(1.12929 2.23061e-05 0)
(1.12931 1.67538e-05 0)
(1.12932 1.23636e-05 0)
(1.12933 8.78439e-06 0)
(1.12934 5.96429e-06 0)
(1.12935 3.39043e-06 0)
(1.12935 8.99781e-07 0)
(1.00035 1.10249e-05 0)
(1.00236 1.18923e-05 0)
(1.00707 1.42395e-05 0)
(1.01412 1.42034e-05 0)
(1.02303 1.27767e-05 0)
(1.03337 1.01815e-05 0)
(1.04462 6.72095e-06 0)
(1.05622 2.8096e-06 0)
(1.06751 -8.74817e-07 0)
(1.07793 -3.84345e-06 0)
(1.08709 -5.81598e-06 0)
(1.09476 -6.74584e-06 0)
(1.10084 -6.70747e-06 0)
(1.10534 -5.82623e-06 0)
(1.10831 -4.21783e-06 0)
(1.10983 -1.5805e-06 0)
(1.10974 6.33043e-07 0)
(1.10833 4.01581e-06 0)
(1.10515 8.67958e-06 0)
(1.09982 1.51076e-05 0)
(1.09165 2.26954e-05 0)
(1.07964 2.91679e-05 0)
(1.06194 3.41437e-05 0)
(1.03872 3.9098e-05 0)
(1.00981 1.99127e-05 0)
(0.971079 -6.62497e-05 0)
(0.876215 -0.000138134 0)
(0.734351 -8.58589e-05 0)
(0 0 0)
(0 0 0)
(0 0 0)
(0 0 0)
(0 0 0)
(0 0 0)
(0 0 0)
(0 0 0)
(0 0 0)
(0 0 0)
(0 0 0)
(0.94461 4.41586e-06 0)
(0.958848 -3.16482e-06 0)
(0.991271 6.42015e-06 0)
(1.02984 1.97982e-05 0)
(1.05974 2.59806e-05 0)
(1.08023 2.08854e-05 0)
(1.09431 1.04097e-05 0)
(1.104 4.25337e-06 0)
(1.1106 1.57611e-06 0)
(1.11524 5.99406e-07 0)
(1.11858 6.521e-07 0)
(1.12105 8.67665e-07 0)
(1.12291 1.10465e-06 0)
(1.12434 1.25636e-06 0)
(1.12544 1.3697e-06 0)
(1.1263 1.44167e-06 0)
(1.12697 1.45532e-06 0)
(1.1275 1.37634e-06 0)
(1.12791 1.21722e-06 0)
(1.12823 1.01862e-06 0)
(1.12848 8.34107e-07 0)
(1.12868 6.74963e-07 0)
(1.12884 5.14007e-07 0)
(1.12896 3.27135e-07 0)
(1.12905 1.0866e-07 0)
(1.12912 -1.19467e-07 0)
(1.12918 -3.35378e-07 0)
(1.12922 -5.37217e-07 0)
(1.12926 -7.37218e-07 0)
(1.12928 -9.47826e-07 0)
(1.12931 -1.16722e-06 0)
(1.12932 -1.38327e-06 0)
(1.12933 -1.59661e-06 0)
(1.12934 -1.78008e-06 0)
(1.12935 -2.00619e-06 0)
(1.12935 -2.29776e-06 0)
(1.00036 -0.00119126 0)
(1.00247 -0.00360152 0)
(1.00732 -0.00589205 0)
(1.01454 -0.00793323 0)
(1.02365 -0.00960168 0)
(1.03419 -0.0107889 0)
(1.0456 -0.0114098 0)
(1.05731 -0.011423 0)
(1.06865 -0.0108471 0)
(1.07906 -0.00978944 0)
(1.08817 -0.00841292 0)
(1.09576 -0.00687471 0)
(1.10175 -0.00529455 0)
(1.10617 -0.00374067 0)
(1.10908 -0.0022312 0)
(1.11053 -0.000764885 0)
(1.11063 0.000661624 0)
(1.10929 0.00228403 0)
(1.10631 0.00420343 0)
(1.10136 0.00666497 0)
(1.09387 0.01001 0)
(1.08294 0.0146058 0)
(1.06704 0.0203386 0)
(1.04535 0.0263212 0)
(1.01789 0.0321054 0)
(0.97828 0.0333613 0)
(0.875681 0.0156966 0)
(0.677674 -0.00299771 -3.69134e-18)
(0 0 0)
(0 0 0)
(0 0 0)
(0 0 0)
(0 0 0)
(0 0 0)
(0 0 0)
(0 0 0)
(0 0 0)
(0 0 0)
(0 0 0)
(0.945722 -0.00945615 -6.43266e-19)
(0.9667 -0.0330491 0)
(0.999815 -0.0387999 0)
(1.03622 -0.0329774 0)
(1.06398 -0.0245475 0)
(1.08299 -0.0172284 0)
(1.09606 -0.0117829 0)
(1.10512 -0.00803405 0)
(1.11134 -0.00556888 0)
(1.11575 -0.00395196 0)
(1.11894 -0.00287624 0)
(1.12131 -0.00214296 0)
(1.12311 -0.00162698 0)
(1.12449 -0.00125208 0)
(1.12556 -0.000971827 0)
(1.12639 -0.000757846 0)
(1.12704 -0.000592296 0)
(1.12755 -0.000463511 0)
(1.12795 -0.000363017 0)
(1.12827 -0.00028433 0)
(1.12851 -0.000222493 0)
(1.1287 -0.000173838 0)
(1.12885 -0.000135658 0)
(1.12897 -0.000105874 0)
(1.12906 -8.27877e-05 0)
(1.12913 -6.47951e-05 0)
(1.12919 -5.069e-05 0)
(1.12923 -3.95807e-05 0)
(1.12926 -3.09182e-05 0)
(1.12929 -2.42032e-05 0)
(1.12931 -1.90941e-05 0)
(1.12932 -1.51175e-05 0)
(1.12933 -1.19566e-05 0)
(1.12934 -9.48925e-06 0)
(1.12935 -7.33983e-06 0)
(1.12935 -5.42325e-06 0)
(1.00039 -0.00247297 0)
(1.00271 -0.00744823 0)
(1.00801 -0.0121414 0)
(1.01583 -0.016277 0)
(1.0256 -0.0196129 0)
(1.03674 -0.0219398 0)
(1.04864 -0.0230961 0)
(1.06069 -0.023005 0)
(1.07214 -0.0217306 0)
(1.08251 -0.019516 0)
(1.09146 -0.0166943 0)
(1.0988 -0.0135804 0)
(1.10452 -0.0104163 0)
(1.10868 -0.00734465 0)
(1.11141 -0.00441185 0)
(1.11282 -0.0016092 0)
(1.11301 0.00120482 0)
(1.11193 0.00425888 0)
(1.10954 0.00779703 0)
(1.10568 0.0122276 0)
(1.10011 0.018087 0)
(1.09251 0.0259928 0)
(1.08249 0.0359902 0)
(1.06877 0.0469176 0)
(1.05309 0.0582158 0)
(1.03521 0.0677628 0)
(0.987405 0.0567182 0)
(0.910796 0.030107 -7.39586e-17)
(0 0 0)
(0 0 0)
(0 0 0)
(0 0 0)
(0 0 0)
(0 0 0)
(0 0 0)
(0 0 0)
(0 0 0)
(0 0 0)
(0 0 0)
(0.955952 -0.0363285 0)
(0.992424 -0.0723194 0)
(1.02434 -0.0750832 0)
(1.05403 -0.0620817 0)
(1.07586 -0.0457186 0)
(1.09066 -0.0320018 0)
(1.101 -0.0219252 0)
(1.10828 -0.0150554 0)
(1.11345 -0.0105207 0)
(1.1172 -0.00752467 0)
(1.11998 -0.00551318 0)
(1.12208 -0.00412818 0)
(1.12369 -0.0031453 0)
(1.12494 -0.00242605 0)
(1.12591 -0.00188557 0)
(1.12666 -0.0014713 0)
(1.12726 -0.00115016 0)
(1.12772 -0.000900149 0)
(1.12808 -0.000705219 0)
(1.12836 -0.000552546 0)
(1.12859 -0.000432417 0)
(1.12876 -0.000337792 0)
(1.1289 -0.000263489 0)
(1.129 -0.000205599 0)
(1.12908 -0.000160734 0)
(1.12915 -0.000125712 0)
(1.1292 -9.81044e-05 0)
(1.12924 -7.64111e-05 0)
(1.12927 -5.93079e-05 0)
(1.12929 -4.5999e-05 0)
(1.12931 -3.58045e-05 0)
(1.12932 -2.78602e-05 0)
(1.12933 -2.15097e-05 0)
(1.12934 -1.63832e-05 0)
(1.12935 -1.21676e-05 0)
(1.12935 -8.13025e-06 0)
(1.00046 -0.00392277 0)
(1.00315 -0.0117813 0)
(1.00928 -0.0191176 0)
(1.01822 -0.0254646 0)
(1.02916 -0.0304656 0)
(1.04137 -0.0338267 0)
(1.05413 -0.0353229 0)
(1.06663 -0.0348707 0)
(1.07823 -0.0326549 0)
(1.08848 -0.0290909 0)
(1.09708 -0.0246904 0)
(1.10395 -0.0199304 0)
(1.10915 -0.0151808 0)
(1.11284 -0.0106538 0)
(1.11522 -0.00641085 0)
(1.11645 -0.00240657 0)
(1.11665 0.00154292 0)
(1.11589 0.0057075 0)
(1.11422 0.0103872 0)
(1.11169 0.0160286 0)
(1.10832 0.0231826 0)
(1.10419 0.0324168 0)
(1.09955 0.0440588 0)
(1.09395 0.0569659 0)
(1.08756 0.0698762 0)
(1.07989 0.0829546 0)
(1.05424 0.0896167 0)
(0.988492 0.0895455 -2.15994e-17)
(0.877339 0.0361703 0)
(0 0 0)
(0 0 0)
(0 0 0)
(0 0 0)
(0 0 0)
(0 0 0)
(0 0 0)
(0 0 0)
(0 0 0)
(0.951263 -0.017847 -1.23414e-17)
(0.99508 -0.0753295 1.57883e-17)
(1.03485 -0.110401 0)
(1.05941 -0.104587 0)
(1.0793 -0.0832901 0)
(1.09248 -0.0605836 0)
(1.10142 -0.0423516 0)
(1.10798 -0.0292343 0)
(1.1129 -0.020329 0)
(1.1166 -0.0143982 0)
(1.11942 -0.0104242 0)
(1.12159 -0.00771346 0)
(1.12328 -0.00581815 0)
(1.1246 -0.0044555 0)
(1.12563 -0.00344779 0)
(1.12645 -0.00268446 0)
(1.12708 -0.00209611 0)
(1.12758 -0.00163877 0)
(1.12796 -0.00128271 0)
(1.12827 -0.00100545 0)
(1.12851 -0.000788209 0)
(1.12869 -0.000616971 0)
(1.12884 -0.000481963 0)
(1.12895 -0.000375638 0)
(1.12904 -0.000292692 0)
(1.12911 -0.00022851 0)
(1.12916 -0.000178322 0)
(1.1292 -0.000138757 0)
(1.12923 -0.000107528 0)
(1.12926 -8.29493e-05 0)
(1.12928 -6.38374e-05 0)
(1.12929 -4.95866e-05 0)
(1.1293 -3.86112e-05 0)
(1.12931 -2.97398e-05 0)
(1.12932 -2.26064e-05 0)
(1.12932 -1.67828e-05 0)
(1.12933 -1.07568e-05 0)
(1.00057 -0.00566482 0)
(1.00389 -0.0169576 0)
(1.01141 -0.0273302 0)
(1.02216 -0.036063 0)
(1.03498 -0.0427002 0)
(1.04882 -0.0468718 0)
(1.06266 -0.048307 0)
(1.07573 -0.0470725 0)
(1.08741 -0.0435448 0)
(1.0973 -0.0383354 0)
(1.10524 -0.0321501 0)
(1.11127 -0.0256407 0)
(1.11559 -0.0193133 0)
(1.11849 -0.0134292 0)
(1.12025 -0.00803757 0)
(1.12109 -0.00304218 0)
(1.12117 0.00174577 0)
(1.12065 0.00664283 0)
(1.11966 0.0119577 0)
(1.11833 0.0181059 0)
(1.11687 0.0255719 0)
(1.11557 0.0348254 0)
(1.11489 0.0461415 0)
(1.11507 0.0590026 0)
(1.11532 0.0731724 0)
(1.11502 0.0906995 0)
(1.10554 0.112202 0)
(1.08249 0.13781 0)
(1.05283 0.136302 -8.31815e-17)
(0.952187 0.0274866 0)
(0 0 0)
(0 0 0)
(0 0 0)
(0 0 0)
(0 0 0)
(0 0 0)
(0 0 0)
(0.95239 -0.00745641 -3.12664e-18)
(0.999075 -0.0645364 -4.86024e-17)
(1.06623 -0.133258 0)
(1.08898 -0.140496 0)
(1.10111 -0.122142 0)
(1.1071 -0.0939214 0)
(1.11042 -0.0675856 0)
(1.11318 -0.0475192 0)
(1.11582 -0.0332858 0)
(1.11823 -0.0235606 0)
(1.12033 -0.0169784 0)
(1.1221 -0.0124803 0)
(1.12356 -0.00934687 0)
(1.12475 -0.00711358 0)
(1.12571 -0.00548104 0)
(1.12647 -0.00425813 0)
(1.12708 -0.00332289 0)
(1.12755 -0.00259752 0)
(1.12793 -0.00203072 0)
(1.12821 -0.0015891 0)
(1.12844 -0.00124467 0)
(1.12862 -0.00097436 0)
(1.12876 -0.000761455 0)
(1.12886 -0.000592994 0)
(1.12895 -0.000460029 0)
(1.12901 -0.000356455 0)
(1.12906 -0.000278913 0)
(1.1291 -0.000219258 0)
(1.12913 -0.000171015 0)
(1.12915 -0.00013291 0)
(1.12917 -0.000103217 0)
(1.12919 -7.98761e-05 0)
(1.1292 -6.14549e-05 0)
(1.1292 -4.71658e-05 0)
(1.12921 -3.6015e-05 0)
(1.12921 -2.71972e-05 0)
(1.12922 -2.00729e-05 0)
(1.12922 -1.26289e-05 0)
(1.00074 -0.0078973 0)
(1.00513 -0.0235245 0)
(1.01492 -0.0375256 0)
(1.02856 -0.0488679 0)
(1.04418 -0.056993 0)
(1.0601 -0.0614446 0)
(1.07526 -0.0621944 0)
(1.08884 -0.0595571 0)
(1.10028 -0.0541679 0)
(1.10935 -0.046892 0)
(1.11605 -0.0386423 0)
(1.12063 -0.0302598 0)
(1.12351 -0.022403 0)
(1.12517 -0.0153215 0)
(1.12598 -0.00902327 0)
(1.12618 -0.00332544 0)
(1.12597 0.00197625 0)
(1.12554 0.00720921 0)
(1.12506 0.0126979 0)
(1.12468 0.0188057 0)
(1.12466 0.0259479 0)
(1.1253 0.0344672 0)
(1.1271 0.0445397 0)
(1.13057 0.0561233 0)
(1.13562 0.0697968 0)
(1.14247 0.0883227 0)