/*--------------------------------*- C++ -*----------------------------------*\
| =========                 |                                                 |
| \\      /  F ield         | OpenFOAM: The Open Source CFD Toolbox           |
|  \\    /   O peration     | Version:  2206                                  |
|   \\  /    A nd           | Website:  www.openfoam.com                      |
|    \\/     M anipulation  |                                                 |
\*---------------------------------------------------------------------------*/
FoamFile
{
    version     2.0;
    format      ascii;
    arch        "LSB;label=32;scalar=64";
    class       surfaceVectorField;
    location    "0.3";
    object      Uf;
}
// * * * * * * * * * * * * * * * * * * * * * * * * * * * * * * * * * * * * * //

dimensions      [0 1 -1 0 0 0 0];

internalField   nonuniform List<vector> 
3650
(
(0.859684 0.0530588 0)
(0.903089 0.140316 0)
(0.701816 0.0842286 0)
(0.90029 0.157869 0)
(0.568841 0.0657471 0)
(0.843534 0.132975 0)
(0.466933 0.0362432 0)
(0.753779 0.101909 0)
(0.39356 0.0181774 0)
(0.676306 0.0733731 0)
(0.34443 0.00922266 0)
(0.615732 0.0491307 0)
(0.312334 0.00445113 0)
(0.570447 0.0320956 0)
(0.292222 0.00184443 0)
(0.537137 0.0201122 0)
(0.280308 0.00050434 0)
(0.514138 0.0119142 0)
(0.273664 -0.000135774 0)
(0.499264 0.00664445 0)
(0.270358 -0.000440997 0)
(0.490127 0.00330543 0)
(0.269127 -0.000587442 0)
(0.484931 0.00123198 0)
(0.269165 -0.000662796 0)
(0.482391 -3.79376e-05 0)
(0.269957 -0.000721455 0)
(0.4815 -0.000792473 0)
(0.271252 -0.000800297 0)
(0.481816 -0.00129488 0)
(0.273011 -0.000906833 0)
(0.482913 -0.00175888 0)
(0.27522 -0.00105014 0)
(0.484725 -0.00220873 0)
(0.277937 -0.0012416 0)
(0.4872 -0.00271652 0)
(0.281249 -0.00148494 0)
(0.490371 -0.00331232 0)
(0.285268 -0.00178252 0)
(0.494322 -0.00401863 0)
(0.290118 -0.00213424 0)
(0.499164 -0.00484946 0)
(0.295924 -0.00253562 0)
(0.505025 -0.00580627 0)
(0.302804 -0.00297659 0)
(0.51203 -0.00687959 0)
(0.310843 -0.00343869 0)
(0.520289 -0.00803923 0)
(0.320086 -0.00389402 0)
(0.529876 -0.00924303 0)
(0.330522 -0.00430061 0)
(0.54084 -0.010436 0)
(0.34205 -0.00459596 0)
(0.553186 -0.0115277 0)
(0.354419 -0.00469664 0)
(0.566823 -0.0123692 0)
(0.36716 -0.00450298 0)
(0.581482 -0.0127414 0)
(0.379509 -0.00392562 0)
(0.596588 -0.0123489 0)
(0.390397 -0.00292777 0)
(0.611173 -0.0108881 0)
(0.398556 -0.00156996 0)
(0.62376 -0.00815889 0)
(0.402816 -1.01987e-05 0)
(0.632556 -0.00425958 0)
(0.402658 0.00163899 0)
(0.636161 0.000157077 0)
(0.397896 0.00315781 0)
(0.63433 0.00476221 0)
(0.389007 0.00428161 0)
(0.626772 0.00888926 0)
(0.377074 0.00494051 0)
(0.614494 0.0119325 0)
(0.363431 0.00515463 0)
(0.59911 0.0136431 0)
(0.349336 0.00501093 0)
(0.582317 0.0140957 0)
(0.335762 0.00462052 0)
(0.56554 0.0135738 0)
(0.323364 0.00408327 0)
(0.549916 0.0123984 0)
(0.3125 0.00348725 0)
(0.536006 0.0108632 0)
(0.303277 0.00290227 0)
(0.524076 0.00922417 0)
(0.295622 0.00236974 0)
(0.514113 0.00765437 0)
(0.289375 0.00190739 0)
(0.505944 0.00624688 0)
(0.284339 0.00151825 0)
(0.499331 0.00503543 0)
(0.280318 0.00119819 0)
(0.494028 0.00402161 0)
(0.277128 0.000939447 0)
(0.489804 0.00318979 0)
(0.274611 0.000732639 0)
(0.486456 0.00251661 0)
(0.272635 0.000568614 0)
(0.483812 0.00197624 0)
(0.271089 0.000439461 0)
(0.481733 0.00154538 0)
(0.269885 0.000338407 0)
(0.480103 0.00120419 0)
(0.268949 0.000259813 0)
(0.478829 0.000935369 0)
(0.268225 0.000198991 0)
(0.477836 0.000724861 0)
(0.267664 0.000152094 0)
(0.477063 0.000560369 0)
(0.267232 0.000116028 0)
(0.476464 0.000432414 0)
(0.266898 8.83589e-05 0)
(0.475999 0.000332925 0)
(0.266642 6.7156e-05 0)
(0.47564 0.000256044 0)
(0.266445 5.09368e-05 0)
(0.475363 0.000196532 0)
(0.266295 3.85618e-05 0)
(0.475149 0.000150756 0)
(0.266179 2.91502e-05 0)
(0.474984 0.000115379 0)
(0.266091 2.1999e-05 0)
(0.474857 8.82813e-05 0)
(0.266023 1.65566e-05 0)
(0.474759 6.73376e-05 0)
(0.265972 1.23999e-05 0)
(0.474685 5.13481e-05 0)
(0.265932 9.23121e-06 0)
(0.474627 3.89667e-05 0)
(0.265903 6.84081e-06 0)
(0.474584 2.95623e-05 0)
(0.26588 5.06417e-06 0)
(0.474551 2.22908e-05 0)
(0.265863 3.74902e-06 0)
(0.474525 1.68531e-05 0)
(0.265851 2.76291e-06 0)
(0.474506 1.26308e-05 0)
(0.265841 2.01004e-06 0)
(0.474492 9.48435e-06 0)
(0.265834 1.40883e-06 0)
(0.474481 6.98314e-06 0)
(0.265829 9.5047e-07 0)
(0.474473 5.09017e-06 0)
(0.265825 5.84999e-07 0)
(0.474467 3.53917e-06 0)
(0.265823 3.23683e-07 0)
(0.474463 2.40554e-06 0)
(0.47446 1.44864e-06 0)
(1.05165 0.154676 0)
(1.01332 0.0886704 0)
(1.04726 0.182025 0)
(1.05553 0.162251 0)
(1.01123 0.166025 0)
(1.0672 0.169009 0)
(0.958222 0.13941 0)
(1.04969 0.154916 0)
(0.898203 0.106112 0)
(1.01637 0.133392 0)
(0.841321 0.0740409 0)
(0.977395 0.106013 0)
(0.794088 0.0492089 0)
(0.939716 0.0793289 0)
(0.758123 0.0311701 0)
(0.905782 0.056077 0)
(0.732616 0.0186979 0)
(0.877787 0.0374214 0)
(0.715411 0.0104333 0)
(0.856866 0.0238497 0)
(0.704499 0.00512018 0)
(0.84196 0.0142174 0)
(0.698059 0.00180434 0)
(0.831984 0.00767215 0)
(0.694652 -0.000218889 0)
(0.825708 0.00336949 0)
(0.693313 -0.00146839 0)
(0.822081 0.000546241 0)
(0.693413 -0.00239611 0)
(0.820435 -0.00139392 0)
(0.694568 -0.00324647 0)
(0.820189 -0.00291432 0)
(0.696616 -0.00410144 0)
(0.821058 -0.0042563 0)
(0.699517 -0.00505158 0)
(0.822893 -0.00561735 0)
(0.703296 -0.00615723 0)
(0.82565 -0.00709083 0)
(0.708034 -0.0074531 0)
(0.829355 -0.00875711 0)
(0.71385 -0.00895293 0)
(0.834086 -0.0106645 0)
(0.720872 -0.0106503 0)
(0.839948 -0.0128284 0)
(0.729226 -0.0125167 0)
(0.847063 -0.0152332 0)
(0.739017 -0.0145 0)
(0.855536 -0.0178308 0)
(0.750328 -0.0165294 0)
(0.865452 -0.0205539 0)
(0.763231 -0.018496 0)
(0.876918 -0.0233389 0)
(0.777757 -0.0202068 0)
(0.890092 -0.0260544 0)
(0.793809 -0.0213499 0)
(0.905123 -0.028421 0)
(0.811025 -0.0214793 0)
(0.92203 -0.0299569 0)
(0.828606 -0.0200453 0)
(0.94045 -0.0299303 0)
(0.84512 -0.0165729 0)
(0.959362 -0.0274017 0)
(0.858592 -0.0109544 0)
(0.976866 -0.0216311 0)
(0.866958 -0.0038294 0)
(0.99029 -0.0126261 0)
(0.868926 0.00391931 0)
(0.997144 -0.00181058 0)
(0.864071 0.0114328 0)
(0.996485 0.0096172 0)
(0.852877 0.0176274 0)
(0.988078 0.0200837 0)
(0.83686 0.0217412 0)
(0.973211 0.0279491 0)
(0.818056 0.0236274 0)
(0.954132 0.0324473 0)
(0.798403 0.0235915 0)
(0.933261 0.0337487 0)
(0.779444 0.0221422 0)
(0.91263 0.0325326 0)
(0.762212 0.0198222 0)
(0.893727 0.0296305 0)
(0.747213 0.017115 0)
(0.877229 0.0258619 0)
(0.734562 0.0143839 0)
(0.863373 0.0218756 0)
(0.724121 0.011853 0)
(0.852026 0.0180951 0)
(0.71563 0.0096283 0)
(0.842877 0.0147378 0)
(0.708795 0.00773835 0)
(0.835565 0.0118708 0)
(0.703331 0.00617034 0)
(0.829756 0.00948467 0)
(0.698985 0.00489068 0)
(0.825155 0.00753595 0)
(0.69554 0.0038573 0)
(0.821515 0.00596225 0)
(0.692817 0.00302894 0)
(0.818637 0.00469847 0)
(0.690674 0.00236938 0)
(0.816368 0.0036893 0)
(0.68899 0.00184736 0)
(0.814582 0.00288758 0)
(0.687672 0.0014364 0)
(0.813179 0.00225396 0)
(0.686641 0.00111422 0)
(0.812079 0.00175534 0)
(0.685837 0.000862374 0)
(0.811217 0.00136417 0)
(0.685211 0.00066606 0)
(0.810544 0.0010578 0)
(0.684726 0.000513532 0)
(0.810018 0.000818715 0)
(0.684349 0.000395379 0)
(0.809609 0.000632653 0)
(0.684057 0.000304022 0)
(0.809291 0.000488312 0)
(0.683831 0.000233465 0)
(0.809044 0.000376402 0)
(0.683656 0.000179015 0)
(0.808852 0.000289782 0)
(0.683522 0.000137038 0)
(0.808703 0.000222708 0)
(0.683418 0.000104709 0)
(0.808588 0.000170893 0)
(0.683338 7.98438e-05 0)
(0.8085 0.000130856 0)
(0.683277 6.07369e-05 0)
(0.808431 0.000100017 0)
(0.683231 4.60816e-05 0)
(0.808379 7.62491e-05 0)
(0.683195 3.48642e-05 0)
(0.808338 5.80052e-05 0)
(0.683168 2.62926e-05 0)
(0.808307 4.39748e-05 0)
(0.683147 1.97358e-05 0)
(0.808283 3.32215e-05 0)
(0.683131 1.46998e-05 0)
(0.808265 2.49351e-05 0)
(0.68312 1.08137e-05 0)
(0.808252 1.85326e-05 0)
(0.683111 7.75409e-06 0)
(0.808242 1.35988e-05 0)
(0.683105 5.43116e-06 0)
(0.808234 9.60269e-06 0)
(0.683101 3.57723e-06 0)
(0.808229 6.79558e-06 0)
(0.808225 3.98939e-06 0)
(1.03966 0.111059 0)
(1.00913 0.0490132 0)
(1.08181 0.156232 0)
(1.04758 0.120102 0)
(1.10261 0.161763 0)
(1.08715 0.148208 0)
(1.10579 0.152695 0)
(1.10976 0.151735 0)
(1.09563 0.13588 0)
(1.11559 0.143548 0)
(1.07567 0.112941 0)
(1.11325 0.12598 0)
(1.05069 0.0875295 0)
(1.10108 0.104309 0)
(1.0248 0.0632595 0)
(1.08488 0.0819631 0)
(1.0017 0.0430243 0)
(1.0671 0.0605214 0)
(0.983097 0.0277689 0)
(1.05075 0.0424522 0)
(0.969236 0.0167821 0)
(1.03685 0.0280794 0)
(0.959507 0.00921735 0)
(1.02607 0.0174012 0)
(0.953056 0.00411343 0)
(1.0182 0.00981996 0)
(0.949136 0.000609013 0)
(1.01279 0.00446678 0)
(0.947153 -0.00191977 0)
(1.0094 0.000589541 0)
(0.946624 -0.00393118 0)
(1.00764 -0.00238507 0)
(0.94726 -0.0057837 0)
(1.00718 -0.00489275 0)
(0.948924 -0.00767773 0)
(1.00781 -0.00728089 0)
(0.95158 -0.00972016 0)
(1.00945 -0.00974709 0)
(0.955244 -0.0120098 0)
(1.01209 -0.0124207 0)
(0.959985 -0.0146 0)
(1.01576 -0.0154055 0)
(0.965901 -0.0174982 0)
(1.02056 -0.0187446 0)
(0.973098 -0.0206719 0)
(1.0266 -0.0224302 0)
(0.981673 -0.0240603 0)
(1.03399 -0.026406 0)
(0.99173 -0.0276017 0)
(1.04282 -0.0306107 4.77046e-34)
(1.00348 -0.0312145 0)
(1.05327 -0.0350876 -4.75242e-34)
(1.01721 -0.0346833 0)
(1.06581 -0.0397884 0)
(1.03321 -0.0375406 0)
(1.08106 -0.0444159 0)
(1.05152 -0.0389664 0)
(1.09962 -0.0482666 0)
(1.07154 -0.0377851 0)
(1.12157 -0.0499502 0)
(1.09168 -0.0327983 0)
(1.14569 -0.0475469 0)
(1.10943 -0.0234721 0)
(1.16914 -0.0393788 0)
(1.12158 -0.0106009 0)
(1.18814 -0.0247775 0)
(1.12577 0.00414619 0)
(1.19823 -0.00599566 0)
(1.12133 0.0187671 0)
(1.1981 0.0140548 0)
(1.10898 0.0310101 0)
(1.18783 0.0324373 0)
(1.09072 0.039238 0)
(1.16925 0.0462046 0)
(1.06933 0.0430681 0)
(1.14555 0.0538374 0)
(1.04734 0.0430849 0)
(1.12021 0.0557399 0)
(1.02665 0.0403115 0)
(1.09608 0.0532264 0)
(1.0084 0.035876 0)
(1.07481 0.047879 0)
(0.993036 0.0307686 0)
(1.05709 0.0412238 0)
(0.980513 0.0256956 0)
(1.04294 0.034398 0)
(0.970501 0.0210656 0)
(1.03191 0.0281073 0)
(0.962573 0.0170469 0)
(1.0234 0.0226655 0)
(0.956328 0.0136676 0)
(1.01685 0.0181158 0)
(0.95142 0.0108893 0)
(1.01182 0.0143926 0)
(0.947558 0.0086392 0)
(1.00793 0.0113984 0)
(0.944511 0.00682941 0)
(1.0049 0.00900914 0)
(0.942108 0.00537954 0)
(1.00253 0.00710148 0)
(0.940214 0.00422372 0)
(1.00067 0.00558335 0)
(0.938723 0.00330678 0)
(0.999205 0.00437899 0)
(0.937549 0.00258272 0)
(0.998056 0.00342735 0)
(0.936626 0.002013 0)
(0.997153 0.0026782 0)
(0.935901 0.00156567 0)
(0.996441 0.0020889 0)
(0.935333 0.00121522 0)
(0.995881 0.00162576 0)
(0.934889 0.000941557 0)
(0.995441 0.00126299 0)
(0.934542 0.000728508 0)
(0.995097 0.000979778 0)
(0.934271 0.000563004 0)
(0.994827 0.000759269 0)
(0.934059 0.00043455 0)
(0.994616 0.000587678 0)
(0.933895 0.000334918 0)
(0.994451 0.000454267 0)
(0.933767 0.0002577 0)
(0.994322 0.000350545 0)
(0.933667 0.000197935 0)
(0.994221 0.000270066 0)
(0.93359 0.000151742 0)
(0.994143 0.000207668 0)
(0.933531 0.000116099 0)
(0.994082 0.000159422 0)
(0.933485 8.86264e-05 0)
(0.994035 0.000122124 0)
(0.933449 6.74708e-05 0)
(0.993998 9.33379e-05 0)
(0.933422 5.11792e-05 0)
(0.99397 7.10961e-05 0)
(0.933401 3.86278e-05 0)
(0.993949 5.39299e-05 0)
(0.933386 2.8928e-05 0)
(0.993932 4.0651e-05 0)
(0.933374 2.14432e-05 0)
(0.99392 3.03484e-05 0)
(0.933365 1.55502e-05 0)
(0.99391 2.24205e-05 0)
(0.933358 1.10379e-05 0)
(0.993903 1.60013e-05 0)
(0.933354 7.25401e-06 0)
(0.993898 1.13835e-05 0)
(0.993894 6.59167e-06 0)
(1.01979 0.0664408 0)
(1.0042 0.029223 0)
(1.05943 0.112601 0)
(1.0272 0.080462 0)
(1.09475 0.135811 0)
(1.06396 0.112891 0)
(1.11897 0.140549 0)
(1.09622 0.127513 0)
(1.13344 0.132908 0)
(1.11796 0.129074 0)
(1.13843 0.117745 0)
(1.13308 0.120995 0)
(1.13509 0.0993227 0)
(1.1384 0.107648 0)
(1.12682 0.0796174 0)
(1.13853 0.0902301 0)
(1.11587 0.0604247 0)
(1.13327 0.0714716 0)
(1.10418 0.0433662 0)
(1.12596 0.0541414 0)
(1.09352 0.0292479 0)
(1.11778 0.0387483 0)
(1.08468 0.0183866 0)
(1.11013 0.0262385 0)
(1.07784 0.0104037 0)
(1.10374 0.0166599 0)
(1.07297 0.00458997 0)
(1.09867 0.00933121 0)
(1.06984 0.000232353 0)
(1.095 0.00372816 0)
(1.06814 -0.00323278 0)
(1.09263 -0.000686293 0)
(1.06768 -0.00625575 0)
(1.09145 -0.00443002 0)
(1.06826 -0.00919756 0)
(1.09129 -0.00786178 0)
(1.06985 -0.0122717 0)
(1.09208 -0.0113385 0)
(1.07246 -0.0156133 0)
(1.09382 -0.01503 0)
(1.07615 -0.0193252 0)
(1.09656 -0.0191013 0)
(1.08103 -0.0234439 0)
(1.10043 -0.0236263 0)
(1.08722 -0.0279444 0)
(1.10559 -0.0286133 0)
(1.09483 -0.0327886 4.77046e-34)
(1.11215 -0.0340166 0)
(1.10401 -0.0380087 2.15271e-36)
(1.12032 -0.0397959 4.77046e-34)
(1.11522 -0.0436528 -4.75242e-34)
(1.13028 -0.0462919 -4.75242e-34)
(1.1293 -0.0496076 0)
(1.14342 -0.0538705 0)
(1.14719 -0.0553521 0)
(1.16094 -0.0623087 0)
(1.16962 -0.0595504 0)
(1.18441 -0.0706965 0)
(1.1961 -0.0599503 0)
(1.21433 -0.0764304 0)
(1.22387 -0.0540381 0)
(1.2483 -0.0753082 0)
(1.24878 -0.0400149 0)
(1.28099 -0.0642929 0)
(1.26609 -0.0193025 0)
(1.30647 -0.0420831 0)
(1.27183 0.00437999 0)
(1.31711 -0.0117451 0)
(1.2655 0.0278662 0)
(1.31497 0.0203944 0)
(1.24858 0.0476997 0)
(1.30169 0.0493516 0)
(1.22414 0.06086 0)
(1.27766 0.0706493 0)
(1.1963 0.0665728 0)
(1.24612 0.0816716 0)
(1.16872 0.0659391 0)
(1.21296 0.0833262 0)
(1.14389 0.0608088 0)
(1.18233 0.0780476 0)
(1.12313 0.0531882 0)
(1.15642 0.0686483 0)
(1.10664 0.0447896 0)
(1.13608 0.0577105 0)
(1.09403 0.0367433 0)
(1.12088 0.0470049 0)
(1.08455 0.0296395 0)
(1.10981 0.0375876 0)
(1.07746 0.0236631 0)
(1.10191 0.0297522 0)
(1.07217 0.0187672 0)
(1.09625 0.0234133 0)
(1.06819 0.0148326 0)
(1.09216 0.0183697 0)
(1.06516 0.0117088 0)
(1.08917 0.0144241 0)
(1.06283 0.00923242 0)
(1.08693 0.0113451 0)
(1.06102 0.00726661 0)
(1.08522 0.00891326 0)
(1.0596 0.00570994 0)
(1.08391 0.00699634 0)
(1.0585 0.00448024 0)
(1.08289 0.00548521 0)
(1.05763 0.00351004 0)
(1.0821 0.00429613 0)
(1.05694 0.00274512 0)
(1.08147 0.00336424 0)
(1.0564 0.00214267 0)
(1.08098 0.00263049 0)
(1.05597 0.00166922 0)
(1.08059 0.0020525 0)
(1.05564 0.00129829 0)
(1.08028 0.00159871 0)
(1.05537 0.00100851 0)
(1.08004 0.00124397 0)
(1.05517 0.000782533 0)
(1.07985 0.000967237 0)
(1.055 0.000606416 0)
(1.0797 0.000751285 0)
(1.05487 0.000469224 0)
(1.07958 0.000582711 0)
(1.05477 0.000362457 0)
(1.07949 0.000451181 0)
(1.05469 0.000279499 0)
(1.07941 0.000348741 0)
(1.05463 0.000215158 0)
(1.07935 0.000269093 0)
(1.05459 0.000165335 0)
(1.07931 0.00020732 0)
(1.05455 0.00012678 0)
(1.07927 0.000159425 0)
(1.05452 9.69469e-05 0)
(1.07925 0.000122309 0)
(1.0545 7.38563e-05 0)
(1.07922 9.35111e-05 0)
(1.05448 5.59794e-05 0)
(1.07921 7.11919e-05 0)
(1.05447 4.21096e-05 0)
(1.07919 5.38578e-05 0)
(1.05446 3.13695e-05 0)
(1.07919 4.03845e-05 0)
(1.05445 2.29148e-05 0)
(1.07918 2.99433e-05 0)
(1.05444 1.63835e-05 0)
(1.07917 2.15507e-05 0)
(1.05444 1.07426e-05 0)
(1.07917 1.53373e-05 0)
(1.07916 8.77707e-06 0)
(1.01042 0.0439803 0)
(1.0023 0.0188077 0)
(1.0361 0.0799194 0)
(1.01538 0.0547817 0)
(1.06673 0.103743 0)
(1.04064 0.0822612 0)
(1.09507 0.115361 0)
(1.06901 0.0991715 0)
(1.11765 0.116564 0)
(1.09396 0.106494 0)
(1.13302 0.110226 0)
(1.1137 0.105624 0)
(1.14184 0.0982853 0)
(1.12774 0.0988268 0)
(1.14477 0.0824297 0)
(1.13685 0.0872963 0)
(1.14322 0.0656124 0)
(1.14017 0.0730297 0)
(1.13929 0.0497883 0)
(1.14041 0.0580662 0)
(1.13429 0.0359458 0)
(1.13805 0.0437517 0)
(1.12915 0.0247041 0)
(1.13478 0.0313743 0)
(1.12447 0.0157902 0)
(1.13128 0.021342 0)
(1.12061 0.00869893 0)
(1.12801 0.0131901 0)
(1.11773 0.00302673 0)
(1.12527 0.0066044 0)
(1.11589 -0.00168024 0)
(1.1233 0.00116149 0)
(1.11501 -0.00583937 0)
(1.12212 -0.00355435 0)
(1.11504 -0.00984258 0)
(1.12169 -0.00788823 0)
(1.11595 -0.0139739 0)
(1.12202 -0.0122506 0)
(1.11779 -0.0184032 0)
(1.12314 -0.016867 0)
(1.12067 -0.0232564 0)
(1.12511 -0.0219785 0)
(1.12476 -0.0286106 0)
(1.12824 -0.0277185 0)
(1.13023 -0.0344769 0)
(1.13267 -0.0340877 0)
(1.13726 -0.0407957 0)
(1.13864 -0.0410426 0)
(1.14617 -0.0479094 0)
(1.14648 -0.0487078 0)
(1.15799 -0.0565504 0)
(1.15672 -0.058113 0)
(1.17451 -0.0668693 0)
(1.1715 -0.0703884 0)
(1.19757 -0.0782081 0)
(1.19294 -0.0853649 0)
(1.22882 -0.088399 0)
(1.22385 -0.101949 0)
(1.26699 -0.0932585 0)
(1.26271 -0.114606 0)
(1.30654 -0.0883889 0)
(1.30289 -0.114852 0)
(1.3402 -0.0690946 0)
(1.3412 -0.0979538 0)
(1.35887 -0.0351546 0)
(1.35778 -0.0607496 0)
(1.36164 0.0054449 0)
(1.35945 -0.014522 0)
(1.35241 0.0441183 0)
(1.35452 0.0296288 0)
(1.33111 0.0748746 0)
(1.344 0.0706467 0)
(1.29941 0.0934535 0)
(1.32279 0.102352 0)
(1.26249 0.0994705 0)
(1.2915 0.118591 0)
(1.22618 0.0958137 0)
(1.25421 0.119635 0)
(1.19432 0.0860104 0)
(1.21834 0.109909 0)
(1.16892 0.0732 0)
(1.1875 0.0940525 0)
(1.14995 0.0598833 0)
(1.16402 0.0766767 0)
(1.13638 0.0477488 0)
(1.14736 0.0605743 0)
(1.12694 0.0375737 0)
(1.13603 0.0470249 0)
(1.1205 0.0293972 0)
(1.1286 0.036198 0)
(1.11609 0.0229604 0)
(1.12376 0.0278218 0)
(1.11303 0.0179385 0)
(1.12059 0.0214245 0)
(1.11086 0.0140393 0)
(1.11848 0.0166018 0)
(1.10925 0.0109974 0)
(1.11707 0.0129528 0)
(1.10806 0.00861392 0)
(1.11605 0.0101066 0)
(1.10716 0.00674627 0)
(1.11531 0.00789748 0)
(1.10646 0.00527985 0)
(1.11475 0.00618013 0)
(1.10592 0.00413324 0)
(1.11432 0.00483985 0)
(1.10549 0.00323643 0)
(1.11398 0.00379206 0)
(1.10515 0.00253018 0)
(1.11372 0.00296792 0)
(1.10489 0.0019741 0)
(1.11351 0.0023188 0)
(1.10468 0.00153839 0)
(1.11334 0.00180889 0)
(1.10451 0.00119828 0)
(1.11321 0.00141036 0)
(1.10438 0.000932759 0)
(1.1131 0.00109955 0)
(1.10427 0.000725198 0)
(1.11302 0.000856481 0)
(1.10419 0.000562907 0)
(1.11295 0.0006661 0)
(1.10412 0.000436161 0)
(1.1129 0.000517096 0)
(1.10407 0.000337369 0)
(1.11286 0.000400693 0)
(1.10403 0.000260548 0)
(1.11282 0.000310006 0)
(1.104 0.000200899 0)
(1.1128 0.000239528 0)
(1.10397 0.000154588 0)
(1.11278 0.000184764 0)
(1.10395 0.000118616 0)
(1.11276 0.000142174 0)
(1.10394 9.0667e-05 0)
(1.11275 0.000109024 0)
(1.10392 6.89503e-05 0)
(1.11274 8.32374e-05 0)
(1.10391 5.20547e-05 0)
(1.11273 6.31625e-05 0)
(1.10391 3.89107e-05 0)
(1.11272 4.75145e-05 0)
(1.1039 2.85524e-05 0)
(1.11272 3.53028e-05 0)
(1.1039 2.04828e-05 0)
(1.11272 2.55452e-05 0)
(1.10389 1.33538e-05 0)
(1.11271 1.8111e-05 0)
(1.11271 1.0225e-05 0)
(1.00589 0.0304573 0)
(1.00137 0.0129144 0)
(1.0221 0.0573145 0)
(1.00934 0.0385735 0)
(1.04428 0.0775426 0)
(1.02613 0.0600822 0)
(1.06799 0.0901255 0)
(1.04749 0.0754643 0)
(1.0901 0.0953551 0)
(1.06908 0.0843838 0)
(1.10854 0.094145 0)
(1.08854 0.0871789 0)
(1.1227 0.0877275 0)
(1.10496 0.0846716 0)
(1.1322 0.0775981 0)
(1.11773 0.0777984 0)
(1.13731 0.0652492 0)
(1.12644 0.0679167 0)
(1.13902 0.0519401 0)
(1.13172 0.0563536 0)
(1.13849 0.0391349 0)
(1.13393 0.0442878 0)
(1.13682 0.0280624 0)
(1.13443 0.0330382 0)
(1.13473 0.0188641 0)
(1.13373 0.0234321 0)
(1.13262 0.0111955 0)
(1.13259 0.0153 0)
(1.1308 0.00479982 0)
(1.13129 0.00842675 0)
(1.12949 -0.000666558 0)
(1.13018 0.00247226 0)
(1.12874 -0.00553216 0)
(1.12935 -0.00280754 0)
(1.1286 -0.0101616 0)
(1.12888 -0.00774479 0)
(1.12911 -0.0149297 0)
(1.1289 -0.0127544 0)
(1.13035 -0.020192 0)
(1.12951 -0.0181136 0)
(1.13253 -0.0262122 0)
(1.13081 -0.0241596 0)
(1.13593 -0.0329915 0)
(1.13319 -0.0311134 0)
(1.1408 -0.0404612 0)
(1.13686 -0.0389568 0)
(1.14743 -0.0487934 0)
(1.14219 -0.0476776 0)
(1.15652 -0.0588019 0)
(1.14962 -0.0577994 0)
(1.16952 -0.0719701 0)
(1.15999 -0.0711111 0)
(1.18914 -0.0893314 0)
(1.17528 -0.090009 0)
(1.21807 -0.11051 0)
(1.19778 -0.114288 0)
(1.25741 -0.130993 0)
(1.23109 -0.141288 0)
(1.29909 -0.139454 0)
(1.26428 -0.15629 0)
(1.33728 -0.127627 0)
(1.28013 -0.153046 0)
(1.36328 -0.0937492 0)
(1.28176 -0.123944 0)
(1.36047 -0.043535 0)
(1.23601 -0.0579443 1.04569e-18)
(1.35271 0.00874549 0)
(1.20655 -0.00675749 3.37445e-17)
(1.3486 0.058617 0)
(1.2113 0.0337302 2.77854e-17)
(1.33575 0.102677 0)
(1.22743 0.0835029 -1.90902e-17)
(1.31386 0.131186 0)
(1.24276 0.124241 -1.76561e-20)
(1.28249 0.14128 0)
(1.25719 0.149956 0)
(1.24587 0.135186 0)
(1.24229 0.156257 0)
(1.2108 0.118373 0)
(1.21686 0.144978 0)
(1.18203 0.0974914 0)
(1.18928 0.122829 0)
(1.16104 0.0772134 0)
(1.16629 0.0976601 0)
(1.14675 0.0596655 0)
(1.14994 0.074872 0)
(1.13749 0.0454842 0)
(1.13936 0.0562855 0)
(1.13169 0.0344848 0)
(1.13292 0.041997 0)
(1.12813 0.0261577 0)
(1.12917 0.0313771 0)
(1.12596 0.0199696 0)
(1.12705 0.0235933 0)
(1.12464 0.0154282 0)
(1.12588 0.0179275 0)
(1.12381 0.0120186 0)
(1.12529 0.0137767 0)
(1.12327 0.0093746 0)
(1.12497 0.0106543 0)
(1.12288 0.00732093 0)
(1.1248 0.00828148 0)
(1.1226 0.00572597 0)
(1.12469 0.00646629 0)
(1.12237 0.00448306 0)
(1.12462 0.00506515 0)
(1.12219 0.00350981 0)
(1.12457 0.00396743 0)
(1.12206 0.002745 0)
(1.12453 0.0031041 0)
(1.12195 0.0021438 0)
(1.1245 0.00242532 0)
(1.12187 0.00167298 0)
(1.12447 0.00189245 0)
(1.1218 0.00130577 0)
(1.12445 0.00147751 0)
(1.12175 0.00101901 0)
(1.12444 0.00115465 0)
(1.1217 0.000794247 0)
(1.12442 0.000901471 0)
(1.12166 0.000617963 0)
(1.1244 0.000702429 0)
(1.12164 0.000479918 0)
(1.12439 0.000546218 0)
(1.12161 0.000372103 0)
(1.12438 0.000423911 0)
(1.12159 0.000288135 0)
(1.12437 0.000328542 0)
(1.12158 0.000222812 0)
(1.12437 0.000254427 0)
(1.12157 0.000171944 0)
(1.12436 0.000196761 0)
(1.12156 0.000132295 0)
(1.12436 0.000151762 0)
(1.12155 0.000101394 0)
(1.12435 0.000116646 0)
(1.12154 7.73132e-05 0)
(1.12435 8.92416e-05 0)
(1.12154 5.85331e-05 0)
(1.12435 6.78631e-05 0)
(1.12154 4.38521e-05 0)
(1.12434 5.11514e-05 0)
(1.12153 3.22632e-05 0)
(1.12434 3.80413e-05 0)
(1.12153 2.31543e-05 0)
(1.12434 2.75993e-05 0)
(1.12153 1.49722e-05 0)
(1.12434 1.9458e-05 0)
(1.12434 1.08111e-05 0)
(1.00368 0.0217148 0)
(1.0009 0.00923215 0)
(1.01444 0.0416653 0)
(1.00621 0.0278114 0)
(1.03035 0.0579552 0)
(1.01789 0.0441792 0)
(1.04883 0.0695205 0)
(1.03378 0.056985 0)
(1.06762 0.0759514 0)
(1.05126 0.0655884 0)
(1.08505 0.0774163 0)
(1.06843 0.069754 0)
(1.10005 0.0744888 0)
(1.08423 0.0696662 0)
(1.112 0.0680041 0)
(1.09781 0.0658556 0)
(1.12077 0.0590081 0)
(1.10872 0.0591434 0)
(1.12661 0.0487212 0)
(1.11688 0.0505149 0)
(1.12985 0.0382466 0)
(1.12241 0.0410464 0)
(1.13122 0.0284531 0)
(1.12578 0.0316663 0)
(1.13155 0.0198831 0)
(1.12755 0.0231086 0)
(1.13125 0.0125402 0)
(1.12834 0.0155983 0)
(1.13066 0.00611655 0)
(1.12847 0.00901954 0)
(1.13 0.000380872 0)
(1.12826 0.00312565 0)
(1.12943 -0.00491887 0)
(1.12783 -0.0022347 0)
(1.12912 -0.0101908 0)
(1.12737 -0.00743685 0)
(1.12922 -0.0157601 0)
(1.12706 -0.012851 0)
(1.1299 -0.0218706 0)
(1.12705 -0.0187946 0)
(1.13136 -0.028813 0)
(1.12754 -0.0256244 0)
(1.13391 -0.0368041 0)
(1.12884 -0.0336597 0)
(1.13797 -0.0458885 0)
(1.13135 -0.0430182 0)
(1.14399 -0.0564144 0)
(1.13558 -0.0536973 0)
(1.15252 -0.0698721 0)
(1.14169 -0.0663254 8.07721e-33)
(1.16484 -0.0887824 0)
(1.1502 -0.0834354 -8.03023e-33)
(1.18295 -0.114294 0)
(1.16103 -0.108118 0)
(1.20869 -0.144373 0)
(1.17495 -0.140021 0)
(1.23705 -0.165459 0)
(1.18912 -0.169656 0)
(1.24905 -0.163724 0)
(1.17972 -0.168287 3.42559e-17)
(1.21965 -0.135557 0)
(1.08837 -0.11057 0)
(1.16168 -0.0762626 1.04569e-18)
(0.603 0.515349 0)
(1.08473 -0.0191305 3.47902e-17)
(0.554946 0.355188 1.04569e-18)
(1.06214 0.012549 6.153e-17)
(0.528593 0.278135 3.37445e-17)
(1.09468 0.0422216 8.69524e-18)
(0.536268 0.266037 2.77854e-17)
(1.13425 0.0809889 -1.91078e-17)
(0.555582 0.223798 -1.90902e-17)
(1.18383 0.128214 -1.76561e-20)
(1.0706 0.0537736 5.82098e-18)
(1.21587 0.161182 0)
(1.12525 0.117915 7.80654e-18)
(1.21233 0.164776 0)
(1.17008 0.159793 0)
(1.19458 0.148926 0)
(1.17538 0.162732 0)
(1.17308 0.122628 0)
(1.16425 0.144329 0)
(1.15483 0.0950136 0)
(1.15065 0.115904 0)
(1.14231 0.0712266 0)
(1.13928 0.0873964 0)
(1.13464 0.0525575 0)
(1.13192 0.0639501 0)
(1.13029 0.0386625 0)
(1.1279 0.0463457 0)
(1.12802 0.0286037 0)
(1.12602 0.0336552 0)
(1.12692 0.0213792 0)
(1.12536 0.0246855 0)
(1.12649 0.016148 0)
(1.12532 0.0183661 0)
(1.12641 0.0123117 0)
(1.12559 0.0138564 0)
(1.12648 0.00947934 0)
(1.12597 0.0105811 0)
(1.1266 0.00736865 0)
(1.12635 0.00816508 0)
(1.12671 0.00576936 0)
(1.12668 0.00635209 0)
(1.12681 0.00452757 0)
(1.12696 0.00496612 0)
(1.12689 0.00354797 0)
(1.12719 0.00388542 0)
(1.12696 0.00277714 0)
(1.12737 0.00303798 0)
(1.12701 0.00217099 0)
(1.12751 0.00237186 0)
(1.12706 0.00169504 0)
(1.12762 0.00184887 0)
(1.12709 0.00132363 0)
(1.12771 0.00144638 0)
(1.12711 0.00103416 0)
(1.12777 0.00113468 0)
(1.12712 0.000807327 0)
(1.12782 0.000887736 0)
(1.12713 0.000628869 0)
(1.12785 0.000692438 0)
(1.12714 0.000488678 0)
(1.12788 0.000538829 0)
(1.12714 0.000379096 0)
(1.12791 0.000418313 0)
(1.12715 0.000293918 0)
(1.12792 0.000324522 0)
(1.12715 0.000227742 0)
(1.12794 0.000251868 0)
(1.12715 0.000176126 0)
(1.12794 0.000195244 0)
(1.12715 0.000135785 0)
(1.12795 0.000150871 0)
(1.12715 0.000104264 0)
(1.12796 0.000116139 0)
(1.12715 7.96385e-05 0)
(1.12796 8.89658e-05 0)
(1.12715 6.03899e-05 0)
(1.12796 6.77047e-05 0)
(1.12715 4.52916e-05 0)
(1.12797 5.10734e-05 0)
(1.12715 3.33586e-05 0)
(1.12797 3.79873e-05 0)
(1.12715 2.39074e-05 0)
(1.12797 2.75913e-05 0)
(1.12715 1.53138e-05 0)
(1.12797 1.93353e-05 0)
(1.12797 1.05423e-05 0)
(1.00256 0.0157307 0)
(1.00065 0.00667463 0)
(1.01022 0.0305466 0)
(1.00451 0.0201484 0)
(1.022 0.043219 0)
(1.01316 0.0324023 0)
(1.03649 0.0529503 0)
(1.02535 0.0424924 0)
(1.05218 0.0592349 0)
(1.03957 0.0498967 0)
(1.06772 0.061831 0)
(1.05445 0.0542193 0)
(1.08208 0.0608821 0)
(1.06895 0.055308 0)
(1.09456 0.0568635 0)
(1.08227 0.0533676 0)
(1.10481 0.0505262 0)
(1.09383 0.0488983 0)
(1.11269 0.0427595 0)
(1.10331 0.0426349 0)
(1.11833 0.0344408 0)
(1.11063 0.035406 0)
(1.12205 0.0263198 0)
(1.11594 0.0279469 0)
(1.12432 0.0188504 0)
(1.11954 0.0208384 0)
(1.12557 0.0121612 0)
(1.12182 0.014351 0)
(1.12608 0.00616417 0)
(1.12311 0.00850211 0)
(1.12607 0.000665772 0)
(1.12363 0.00314515 0)
(1.12574 -0.00460008 0)
(1.12356 -0.00190789 0)
(1.12529 -0.00995997 0)
(1.12309 -0.00698751 0)
(1.12486 -0.0157585 0)
(1.12235 -0.0124175 0)
(1.12464 -0.0223863 0)
(1.12149 -0.0185814 0)
(1.12494 -0.0302249 0)
(1.12074 -0.0259202 0)
(1.12613 -0.0395346 0)
(1.12041 -0.0348518 0)
(1.12874 -0.0503798 0)
(1.12097 -0.0456243 0)
(1.133 -0.0630293 8.07721e-33)
(1.12279 -0.0579647 0)
(1.13874 -0.0791379 5.71506e-35)
(1.12544 -0.0720638 8.07721e-33)
(1.14576 -0.101786 -8.03023e-33)
(1.12876 -0.0904541 -8.03023e-33)
(1.15295 -0.131249 0)
(1.12742 -0.1153 0)
(1.15561 -0.158897 0)
(1.1191 -0.142682 0)
(1.14463 -0.158939 3.42559e-17)
(1.10255 -0.158674 4.15944e-17)
(1.11546 -0.0973253 3.42559e-17)
(1.03092 -0.117713 3.42559e-17)
(1.19136 -0.0236215 0)
(0.467729 0.253512 0)
(0.476345 0 0)
(0 0.00145523 0)
(0.30788 0 0)
(0 -0.00231852 0)
(0.32221 0 0)
(0 0.00614843 0)
(0.406528 0 0)
(0 0.0131573 0)
(0.587532 0.00966087 5.83863e-18)
(0 0.0282675 0)
(1.02409 0.0453661 1.36452e-17)
(0.491807 0.11125 5.83863e-18)
(1.0766 0.108483 7.80654e-18)
(0.994962 0.0371719 9.36991e-18)
(1.13018 0.154227 0)
(1.05966 0.106208 2.43148e-17)
(1.14384 0.156818 0)
(1.10543 0.149074 0)
(1.14188 0.136741 0)
(1.11686 0.14629 0)
(1.13482 0.107527 0)
(1.11985 0.122965 0)
(1.1287 0.079594 0)
(1.11916 0.0935195 0)
(1.12513 0.0573593 0)
(1.11834 0.0675164 0)
(1.12361 0.0410513 0)
(1.11854 0.0478721 0)
(1.12335 0.029534 0)
(1.11952 0.0339134 0)
(1.12374 0.0215258 0)
(1.12083 0.0242902 0)
(1.12441 0.0159483 0)
(1.12218 0.0176944 0)
(1.12515 0.0120093 0)
(1.12344 0.0131232 0)
(1.12583 0.00916715 0)
(1.12453 0.00989704 0)
(1.12643 0.00706969 0)
(1.12545 0.00756959 0)
(1.12693 0.00549089 0)
(1.1262 0.00585197 0)
(1.12734 0.00428275 0)
(1.12681 0.00455584 0)
(1.12767 0.00334464 0)
(1.1273 0.00355859 0)
(1.12792 0.00260842 0)
(1.12768 0.00278032 0)
(1.12812 0.00203183 0)
(1.12798 0.00217079 0)
(1.12828 0.00158891 0)
(1.12821 0.00169645 0)
(1.12839 0.00125071 0)
(1.12839 0.00133116 0)
(1.12848 0.000983523 0)
(1.12853 0.00104518 0)
(1.12855 0.000769253 0)
(1.12864 0.000816999 0)
(1.12861 0.000600204 0)
(1.12872 0.000637068 0)
(1.12865 0.000467358 0)
(1.12879 0.000495535 0)
(1.12868 0.000362937 0)
(1.12884 0.000384156 0)
(1.12871 0.000281539 0)
(1.12888 0.00029851 0)
(1.12873 0.000218476 0)
(1.12891 0.000232724 0)
(1.12874 0.000169305 0)
(1.12893 0.000180866 0)
(1.12876 0.000130699 0)
(1.12895 0.000139899 0)
(1.12876 0.000100401 0)
(1.12897 0.000107745 0)
(1.12877 7.66727e-05 0)
(1.12898 8.25294e-05 0)
(1.12878 5.81244e-05 0)
(1.12898 6.27549e-05 0)
(1.12878 4.35864e-05 0)
(1.12899 4.73439e-05 0)
(1.12878 3.20945e-05 0)
(1.129 3.52069e-05 0)
(1.12878 2.29406e-05 0)
(1.129 2.55631e-05 0)
(1.12879 1.45279e-05 0)
(1.129 1.77654e-05 0)
(1.129 9.45985e-06 0)
(1.00193 0.011334 0)
(1.00051 0.00474168 0)
(1.00776 0.0221674 0)
(1.00352 0.0143172 0)
(1.01696 0.0317205 0)
(1.01034 0.0232095 0)
(1.02867 0.0394028 0)
(1.02019 0.0307815 0)
(1.04195 0.0448036 0)
(1.03206 0.0366168 0)
(1.05578 0.0476021 0)
(1.04509 0.0403909 0)
(1.06922 0.0476968 0)
(1.05838 0.04186 0)
(1.08158 0.0453099 0)
(1.07117 0.0410083 0)
(1.09236 0.040936 0)
(1.08281 0.0381246 0)
(1.10127 0.0352345 0)
(1.09288 0.0337263 0)
(1.10825 0.0288843 0)
(1.10115 0.028423 0)
(1.11342 0.0224646 0)
(1.1076 0.0227777 0)
(1.11703 0.0163588 0)
(1.11236 0.0172283 0)
(1.11937 0.0107218 0)
(1.11566 0.0120143 0)
(1.12068 0.00552986 0)
(1.11773 0.00719239 0)
(1.12113 0.000640294 0)
(1.11876 0.00268832 0)
(1.12091 -0.00419987 0)
(1.1189 -0.00168867 0)
(1.12016 -0.0093038 0)
(1.11826 -0.00623714 0)
(1.119 -0.0150345 0)
(1.11693 -0.0112547 0)
(1.11759 -0.0218437 0)
(1.11499 -0.0171753 0)
(1.1162 -0.0302121 0)
(1.11256 -0.0245251 0)
(1.11518 -0.0405128 0)
(1.10983 -0.033828 0)
(1.11491 -0.0526215 0)
(1.10715 -0.0453559 0)
(1.11519 -0.0661742 0)
(1.1044 -0.0582492 0)
(1.11498 -0.0820504 0)
(1.10129 -0.0718486 1.06814e-33)
(1.11173 -0.101502 0)
(1.09729 -0.0872065 -1.06702e-33)
(1.09807 -0.124927 0)
(1.07979 -0.101643 0)
(1.07466 -0.13693 4.15944e-17)
(1.03543 -0.119271 1.07997e-17)